 VARIABLES = X,Y,Z,DU1,DU2,DU3,U1,U2,U3,S11,S22,S33,S12,S13,S23
 ZONE, T="0.1000D+01" F=FEPOINT, I= 3642 J= 2725 ET=BRICK
  -0.2392708507E+01   0.3049994155E+01  -0.1298536906E+02  -0.6058745072E+00   0.3699896856E+01  -0.1298536906E+02   0.0000000000E+00   0.0000000000E+00   0.0000000000E+00  -0.1151725568E+02  -0.9911293443E+02  -0.3114969636E+02  -0.5696577273E+01   0.1684997295E+01   0.3121606389E+01
  -0.2447972305E+01   0.3087871240E+01  -0.1135968561E+02  -0.6541328551E+00   0.3521442132E+01  -0.1135968561E+02   0.0000000000E+00   0.0000000000E+00   0.0000000000E+00  -0.1309617440E+02  -0.1097562655E+03  -0.3449200181E+02  -0.5520108961E+01   0.2073751535E+01   0.3025246998E+01
  -0.2774209400E+01   0.3067315531E+01  -0.1105419378E+02  -0.7742093999E+00   0.3499439907E+01  -0.1105419378E+02   0.0000000000E+00   0.0000000000E+00   0.0000000000E+00  -0.1092047530E+02  -0.1075639167E+03  -0.3366122741E+02  -0.4025188490E+01   0.6261735837E+01   0.5727146551E+01
  -0.2718635309E+01   0.3028253651E+01  -0.1268722611E+02  -0.7186353089E+00   0.3676194525E+01  -0.1268722611E+02   0.0000000000E+00   0.0000000000E+00   0.0000000000E+00  -0.1005495623E+02  -0.9772280951E+02  -0.3058575205E+02  -0.4140127740E+01   0.5755756278E+01   0.5968575516E+01
  -0.2140985249E+01   0.1546605084E+01  -0.1274292273E+02  -0.3541512490E+00   0.2196507785E+01  -0.1294292274E+02   0.0000000000E+00   0.0000000000E+00   0.0000000000E+00   0.9833310651E+01  -0.4055670153E+02   0.2496832869E+01  -0.2158547253E+01   0.1283609576E+00   0.8164372854E+01
  -0.2176489321E+01   0.1656738968E+01  -0.1111236042E+02  -0.3826498709E+00   0.2090309860E+01  -0.1131236042E+02   0.0000000000E+00   0.0000000000E+00   0.0000000000E+00   0.1006219379E+02  -0.4499408644E+02   0.2459763433E+01  -0.2101357737E+01   0.4973790112E+00   0.7950207225E+01
  -0.2446367478E+01   0.1637767116E+01  -0.1080937248E+02  -0.4463674784E+00   0.2069891492E+01  -0.1100937248E+02   0.0000000000E+00   0.0000000000E+00   0.0000000000E+00   0.9519674811E-01  -0.5438759885E+02  -0.8163576175E+01  -0.9406242984E+00   0.3256772823E+01   0.1208238576E+02
  -0.2414836330E+01   0.1526398472E+01  -0.1244638839E+02  -0.4148363296E+00   0.2174339346E+01  -0.1264638839E+02   0.0000000000E+00   0.0000000000E+00   0.0000000000E+00   0.2558439806E+00  -0.4970498035E+02  -0.7424214970E+01  -0.9480920985E+00   0.2924742574E+01   0.1262354930E+02
  -0.2499219205E+01   0.3108093887E+01  -0.9844810943E+01  -0.6990719148E+00   0.3329145759E+01  -0.9844810943E+01   0.0000000000E+00   0.0000000000E+00   0.0000000000E+00  -0.1474812334E+02  -0.1198710612E+03  -0.3767506476E+02  -0.4829295426E+01   0.2324417606E+01   0.2767641806E+01
  -0.2825656920E+01   0.3089456019E+01  -0.9525578212E+01  -0.8256569204E+00   0.3308433768E+01  -0.9525578212E+01   0.0000000000E+00   0.0000000000E+00   0.0000000000E+00  -0.1205861317E+02  -0.1171914120E+03  -0.3684486816E+02  -0.3499299184E+01   0.6796463413E+01   0.5269080518E+01
  -0.2209128901E+01   0.1755652100E+01  -0.9592725708E+01  -0.4089816110E+00   0.1976703972E+01  -0.9792725711E+01   0.0000000000E+00   0.0000000000E+00   0.0000000000E+00   0.1018278778E+02  -0.4918606434E+02   0.2439570065E+01  -0.1756941040E+01   0.8264001151E+00   0.7301841408E+01
  -0.2475353779E+01   0.1738992772E+01  -0.9276925232E+01  -0.4753537788E+00   0.1957970521E+01  -0.9476925235E+01   0.0000000000E+00   0.0000000000E+00   0.0000000000E+00  -0.1917635437E+00  -0.5891717609E+02  -0.8959204752E+01  -0.7505896219E+00   0.3569220161E+01   0.1104134269E+02
  -0.2541918757E+01   0.3112481027E+01  -0.8445390730E+01  -0.7368507366E+00   0.3124752375E+01  -0.8445390730E+01   0.0000000000E+00   0.0000000000E+00   0.0000000000E+00  -0.1548497766E+02  -0.1285499288E+03  -0.4017522250E+02  -0.4016071561E+01   0.2470100805E+01   0.2556544057E+01
  -0.2869563257E+01   0.3096076736E+01  -0.8126245312E+01  -0.8695632569E+00   0.3107459052E+01  -0.8126245312E+01   0.0000000000E+00   0.0000000000E+00   0.0000000000E+00  -0.1230070108E+02  -0.1253863702E+03  -0.3928421982E+02  -0.3007998605E+01   0.7284052117E+01   0.4649776244E+01
  -0.2235943933E+01   0.1844367698E+01  -0.8189404753E+01  -0.4308759131E+00   0.1856639046E+01  -0.8389404756E+01   0.0000000000E+00   0.0000000000E+00   0.0000000000E+00   0.1065014910E+02  -0.5287749420E+02   0.2483796502E+01  -0.1361395252E+01   0.9484251126E+00   0.6495443927E+01
  -0.2499991303E+01   0.1829576553E+01  -0.7874482506E+01  -0.4999913034E+00   0.1840958869E+01  -0.8074482509E+01   0.0000000000E+00   0.0000000000E+00   0.0000000000E+00  -0.1420682284E+00  -0.6296389040E+02  -0.9642606464E+01  -0.6335308661E+00   0.3880019878E+01   0.9640682588E+01
  -0.2065377929E+01   0.3044330685E+01  -0.1324810697E+02  -0.4936235887E+00   0.3697989552E+01  -0.1324810697E+02   0.0000000000E+00   0.0000000000E+00   0.0000000000E+00  -0.2030571166E+02  -0.1072507642E+03  -0.3913932100E+02  -0.6514050360E+01   0.1666165742E+01   0.2949794087E+01
  -0.2122027496E+01   0.3083356075E+01  -0.1161659920E+02  -0.5355672659E+00   0.3519103579E+01  -0.1161659920E+02   0.0000000000E+00   0.0000000000E+00   0.0000000000E+00  -0.2313379905E+02  -0.1189932383E+03  -0.4331380340E+02  -0.6731410021E+01   0.2059591535E+01   0.2794828676E+01
  -0.1863713186E+01   0.1548491792E+01  -0.1300533210E+02  -0.2919588459E+00   0.2202150659E+01  -0.1320533210E+02   0.0000000000E+00   0.0000000000E+00   0.0000000000E+00   0.1323275611E+02  -0.3756176282E+02   0.5514380214E+01  -0.3313653858E+01   0.8694518124E+00   0.6706853936E+01
  -0.1904414685E+01   0.1659402681E+01  -0.1136836893E+02  -0.3179544552E+00   0.2095150185E+01  -0.1156836893E+02   0.0000000000E+00   0.0000000000E+00   0.0000000000E+00   0.1370977148E+02  -0.4173845221E+02   0.5954452709E+01  -0.3492718126E+01   0.1639162583E+01   0.6703242681E+01
  -0.2177362815E+01   0.3104345243E+01  -0.1009340013E+02  -0.5764364153E+00   0.3325781773E+01  -0.1009340013E+02   0.0000000000E+00   0.0000000000E+00   0.0000000000E+00  -0.2718839300E+02  -0.1311304589E+03  -0.4805014716E+02  -0.6134317009E+01   0.2660008150E+01   0.2434463631E+01
  -0.1943924792E+01   0.1758805803E+01  -0.9839293438E+01  -0.3429983915E+00   0.1980242333E+01  -0.1003929344E+02   0.0000000000E+00   0.0000000000E+00   0.0000000000E+00   0.1322286890E+02  -0.4640312666E+02   0.5849525958E+01  -0.3150380849E+01   0.2436623043E+01   0.6047459526E+01
  -0.2225694999E+01   0.3109414394E+01  -0.8670412801E+01  -0.6114063092E+00   0.3118047005E+01  -0.8670412801E+01   0.0000000000E+00   0.0000000000E+00   0.0000000000E+00  -0.2893735467E+02  -0.1404391056E+03  -0.5103767771E+02  -0.5114283602E+01   0.3056600507E+01   0.2443059845E+01
  -0.1978266980E+01   0.1848737559E+01  -0.8411818331E+01  -0.3639782902E+00   0.1857370170E+01  -0.8611818334E+01   0.0000000000E+00   0.0000000000E+00   0.0000000000E+00   0.1328224394E+02  -0.5029408595E+02   0.5842321032E+01  -0.2488959583E+01   0.2943619895E+01   0.5520456306E+01
  -0.1732311220E+01   0.3035378029E+01  -0.1348938325E+02  -0.3800664904E+00   0.3695936670E+01  -0.1348938325E+02   0.0000000000E+00   0.0000000000E+00   0.0000000000E+00  -0.2254368878E+02  -0.1093852870E+03  -0.4151807908E+02  -0.4627033491E+01   0.2715674211E+00   0.2970532135E+01
  -0.1795695936E+01   0.3075269067E+01  -0.1182809514E+02  -0.4179748662E+00   0.3513891661E+01  -0.1182809514E+02   0.0000000000E+00   0.0000000000E+00   0.0000000000E+00  -0.2893073670E+02  -0.1247272369E+03  -0.4860015916E+02  -0.5167895609E+01   0.1499493661E+01   0.2961533259E+01
  -0.1579438537E+01   0.1543115661E+01  -0.1324714834E+02  -0.2271938066E+00   0.2203674302E+01  -0.1344714835E+02   0.0000000000E+00   0.0000000000E+00   0.0000000000E+00   0.1632466282E+02  -0.3498304245E+02   0.7955515884E+01  -0.2956522680E+01   0.3855864550E-01   0.6285484340E+01
  -0.1629604937E+01   0.1655805489E+01  -0.1157937271E+02  -0.2518838671E+00   0.2094428083E+01  -0.1177937271E+02   0.0000000000E+00   0.0000000000E+00   0.0000000000E+00   0.1661655302E+02  -0.3955389456E+02   0.8459838415E+01  -0.3315364116E+01   0.1361671063E+01   0.6557839412E+01
  -0.1859905215E+01   0.3096678525E+01  -0.1029421557E+02  -0.4573886153E+00   0.3319388717E+01  -0.1029421557E+02   0.0000000000E+00   0.0000000000E+00   0.0000000000E+00  -0.3445615095E+02  -0.1375680347E+03  -0.5374616104E+02  -0.4749650562E+01   0.1918290312E+01   0.2450540967E+01
  -0.1679745919E+01   0.1755660739E+01  -0.1003839645E+02  -0.2772293190E+00   0.1978370931E+01  -0.1023839646E+02   0.0000000000E+00   0.0000000000E+00   0.0000000000E+00   0.1586825916E+02  -0.4396213356E+02   0.8871284855E+01  -0.3051813173E+01   0.2648990316E+01   0.5879297780E+01
  -0.1911157743E+01   0.3101744380E+01  -0.8876384617E+01  -0.4885217130E+00   0.3111942858E+01  -0.8876384617E+01   0.0000000000E+00   0.0000000000E+00   0.0000000000E+00  -0.3753781605E+02  -0.1481396575E+03  -0.5757293645E+02  -0.3742989114E+01   0.2162813130E+01   0.2492274201E+01
  -0.1719568131E+01   0.1845117170E+01  -0.8615285767E+01  -0.2969321007E+00   0.1855315648E+01  -0.8815285770E+01   0.0000000000E+00   0.0000000000E+00   0.0000000000E+00   0.1583476816E+02  -0.4781526950E+02   0.9159771621E+01  -0.2349101115E+01   0.3296405397E+01   0.5372069953E+01
  -0.1382886552E+01   0.3030503716E+01  -0.1371990658E+02  -0.2609857516E+00   0.3701958742E+01  -0.1371990658E+02   0.0000000000E+00   0.0000000000E+00   0.0000000000E+00  -0.2152213204E+02  -0.1073950416E+03  -0.4037710633E+02   0.1223732438E+01  -0.1628193460E+00   0.4236337179E+01
  -0.1469528276E+01   0.3073127500E+01  -0.1198196763E+02  -0.3004718562E+00   0.3514054588E+01  -0.1198196763E+02   0.0000000000E+00   0.0000000000E+00   0.0000000000E+00  -0.2510605340E+02  -0.1200859664E+03  -0.4597104185E+02  -0.1194721751E+01   0.7297028490E+00   0.3175570544E+01
  -0.1280173180E+01   0.1536935767E+01  -0.1347826752E+02  -0.1582723796E+00   0.2208390793E+01  -0.1367826752E+02   0.0000000000E+00   0.0000000000E+00   0.0000000000E+00   0.1635135341E+02  -0.3462042918E+02   0.7922127129E+01   0.7417424809E+00   0.7597396610E-01   0.6462814180E+01
  -0.1353480088E+01   0.1654343292E+01  -0.1173602622E+02  -0.1844236681E+00   0.2095270380E+01  -0.1193602623E+02   0.0000000000E+00   0.0000000000E+00   0.0000000000E+00   0.2136580224E+02  -0.3472077425E+02   0.1202207775E+02  -0.1021039342E+01   0.1601117734E+01   0.7128648226E+01
  -0.1551593015E+01   0.3092554960E+01  -0.1043257354E+02  -0.3430211052E+00   0.3315163467E+01  -0.1043257354E+02   0.0000000000E+00   0.0000000000E+00   0.0000000000E+00  -0.3838895388E+02  -0.1418603877E+03  -0.5651809164E+02  -0.2522152120E+01   0.8986630091E+00   0.2035348955E+01
  -0.1421529711E+01   0.1753424963E+01  -0.1017451063E+02  -0.2129578014E+00   0.1976033470E+01  -0.1037451064E+02   0.0000000000E+00   0.0000000000E+00   0.0000000000E+00   0.1730208335E+02  -0.4341352451E+02   0.1069157985E+02  -0.2089946681E+01   0.3115673578E+01   0.6177928983E+01
  -0.1605668945E+01   0.3094308445E+01  -0.9027656968E+01  -0.3704324145E+00   0.3106031248E+01  -0.9027656968E+01   0.0000000000E+00   0.0000000000E+00   0.0000000000E+00  -0.4139235683E+02  -0.1529567425E+03  -0.6006784055E+02  -0.2117840035E+01   0.1451334086E+01   0.2780840836E+01
  -0.1466785630E+01   0.1839276510E+01  -0.8763370042E+01  -0.2315491002E+00   0.1850999313E+01  -0.8963370045E+01   0.0000000000E+00   0.0000000000E+00   0.0000000000E+00   0.1692306593E+02  -0.4803196061E+02   0.1086058800E+02  -0.1911530702E+01   0.4202512428E+01   0.5846038182E+01
  -0.9891038209E+00   0.3075690689E+01  -0.1394084674E+02  -0.1305151249E+00   0.3762646975E+01  -0.1394084674E+02   0.0000000000E+00   0.0000000000E+00   0.0000000000E+00  -0.1973549303E+02  -0.1000896915E+03  -0.3716181506E+02   0.1267259477E+02  -0.1618687160E+01   0.2172558767E+01
  -0.1153237224E+01   0.3096912115E+01  -0.1201967227E+02  -0.1854164599E+00   0.3529959588E+01  -0.1201967227E+02   0.0000000000E+00   0.0000000000E+00   0.0000000000E+00  -0.2854378638E+02  -0.1287125536E+03  -0.4859122784E+02   0.3977411390E+01  -0.2821178112E+01   0.2126311855E+01
  -0.9419142323E+00   0.1563041714E+01  -0.1370141000E+02  -0.8332553630E-01   0.2249998000E+01  -0.1390141000E+02   0.0000000000E+00   0.0000000000E+00   0.0000000000E+00   0.1344548391E+02  -0.3333479611E+02   0.6304288018E+01   0.7978918263E+01  -0.1479250122E+01   0.5028139129E+01
  -0.1086109652E+01   0.1674491557E+01  -0.1176752582E+02  -0.1182888879E+00   0.2107539030E+01  -0.1196752582E+02   0.0000000000E+00   0.0000000000E+00   0.0000000000E+00   0.1524140097E+02  -0.4404122477E+02   0.7179003923E+01   0.2604121891E+01  -0.1219797871E+00   0.6236119068E+01
  -0.1263039550E+01   0.3098884922E+01  -0.1047327396E+02  -0.2355612105E+00   0.3313958895E+01  -0.1047327396E+02   0.0000000000E+00   0.0000000000E+00   0.0000000000E+00  -0.4322353801E+02  -0.1524913877E+03  -0.6109470616E+02  -0.1159705449E+00   0.3909047777E+00   0.2362857474E+01
  -0.1178942732E+01   0.1759789413E+01  -0.1020956010E+02  -0.1514643924E+00   0.1974863386E+01  -0.1040956010E+02   0.0000000000E+00   0.0000000000E+00   0.0000000000E+00   0.1234679839E+02  -0.5352046165E+02   0.5784479240E+01  -0.7886351117E+00   0.2634881723E+01   0.6370446851E+01
  -0.1314400010E+01   0.3087955535E+01  -0.9123119200E+01  -0.2566674300E+00   0.3100216844E+01  -0.9123119200E+01   0.0000000000E+00   0.0000000000E+00   0.0000000000E+00  -0.4717073061E+02  -0.1645977679E+03  -0.6552662331E+02  -0.6043976805E+00   0.9431497352E+00   0.3258549912E+01
  -0.1225038712E+01   0.1831797615E+01  -0.8853074434E+01  -0.1673061320E+00   0.1844058924E+01  -0.9053074437E+01   0.0000000000E+00   0.0000000000E+00   0.0000000000E+00   0.1253329972E+02  -0.5759027334E+02   0.6509342970E+01  -0.2039881009E+01   0.4052057751E+01   0.7001476421E+01
  -0.1010093197E+01   0.3112548913E+01  -0.1041293588E+02  -0.1357111784E+00   0.3310968201E+01  -0.1041293588E+02   0.0000000000E+00   0.0000000000E+00   0.0000000000E+00  -0.1137471780E+02  -0.1332815714E+03  -0.3229066168E+02   0.6936946630E+01  -0.6253045924E+01   0.1661863944E+01
  -0.1049393219E+01   0.3075507969E+01  -0.9129125444E+01  -0.1472073022E+00   0.3080560511E+01  -0.9129125444E+01   0.0000000000E+00   0.0000000000E+00   0.0000000000E+00  -0.1570446763E+02  -0.1504934244E+03  -0.3850277725E+02  -0.1692939643E+01  -0.5651630162E+01   0.3823816574E+01
  -0.9678362260E+00   0.1774377984E+01  -0.1014123549E+02  -0.9345420704E-01   0.1972797272E+01  -0.1034123549E+02   0.0000000000E+00   0.0000000000E+00   0.0000000000E+00   0.1902649538E+02  -0.5599211970E+02   0.1225558752E+02   0.4022404473E+01   0.1482752517E+01   0.6859979551E+01
  -0.1006362211E+01   0.1821043701E+01  -0.8849424405E+01  -0.1041762939E+00   0.1826096243E+01  -0.9049424408E+01   0.0000000000E+00   0.0000000000E+00   0.0000000000E+00   0.1878486562E+02  -0.6386109949E+02   0.1159581929E+02  -0.3009706663E+01   0.3595378991E+01   0.9563676149E+01
  -0.7617312495E+00   0.3150176586E+01  -0.1025366558E+02  -0.3004388249E-01   0.3314899252E+01  -0.1025366558E+02   0.0000000000E+00   0.0000000000E+00   0.0000000000E+00  -0.1017859506E+03  -0.2495439086E+03  -0.1063722072E+03   0.1995568327E+02  -0.1780787253E+02  -0.3652202625E+01
  -0.7696076989E+00   0.3047751694E+01  -0.9164941490E+01  -0.1960769893E-01   0.3047751694E+01  -0.9164941490E+01   0.0000000000E+00   0.0000000000E+00   0.0000000000E+00  -0.1038487816E+03  -0.2759951598E+03  -0.1136669740E+03  -0.1862195274E+01  -0.1956494773E+02   0.7739362678E+01
  -0.7652215761E+00   0.1811939384E+01  -0.9933235054E+01  -0.3353420914E-01   0.1976662050E+01  -0.1013323506E+02   0.0000000000E+00   0.0000000000E+00   0.0000000000E+00  -0.4946048408E+02  -0.1408243207E+03  -0.4415261884E+02   0.1264273411E+02  -0.2292818193E+01   0.5234037702E+01
  -0.7812223048E+00   0.1804101656E+01  -0.8832199797E+01  -0.3122230477E-01   0.1804101656E+01  -0.9032199800E+01   0.0000000000E+00   0.0000000000E+00   0.0000000000E+00  -0.4890059014E+02  -0.1555280715E+03  -0.4597062875E+02  -0.2751202530E+01  -0.1560761352E+01   0.1463711069E+02
  -0.9136444177E+00   0.3139935193E+01  -0.1179304412E+02  -0.9844158572E-01   0.3534014580E+01  -0.1179304412E+02   0.0000000000E+00   0.0000000000E+00   0.0000000000E+00  -0.1975523538E+02  -0.1219139351E+03  -0.3517801168E+02   0.1578904395E+02  -0.5528011437E+01   0.6520967998E+00
  -0.8852356757E+00   0.1720233260E+01  -0.1152965994E+02  -0.7003284369E-01   0.2114312647E+01  -0.1172965994E+02   0.0000000000E+00   0.0000000000E+00   0.0000000000E+00   0.7194482839E+01  -0.5326260322E+02   0.4023124576E+01   0.1037735271E+02  -0.1569275835E-01   0.4965829636E+01
  -0.6959270942E+00   0.3233838705E+01  -0.1133298209E+02  -0.1915724116E-01   0.3557076303E+01  -0.1133298209E+02   0.0000000000E+00   0.0000000000E+00   0.0000000000E+00  -0.7898203806E+02  -0.1860347824E+03  -0.7795779970E+02   0.3283300598E+02  -0.8251049700E+01  -0.1032186850E+02
  -0.7048439300E+00   0.1808438628E+01  -0.1103777937E+02  -0.2807407704E-01   0.2131676226E+01  -0.1123777938E+02   0.0000000000E+00   0.0000000000E+00   0.0000000000E+00  -0.3752351601E+02  -0.1007675092E+03  -0.2875941883E+02   0.2100446380E+02  -0.3572774814E+00  -0.1647603218E+01
  -0.7674251686E+00   0.3170240623E+01  -0.1304901140E+02  -0.5394713956E-01   0.3734421116E+01  -0.1304901140E+02   0.0000000000E+00   0.0000000000E+00   0.0000000000E+00  -0.2115286187E+02  -0.9930586972E+02  -0.3237485461E+02   0.2298633365E+02  -0.2448073917E+01  -0.3138418641E+01
  -0.7580873491E+00   0.1674931932E+01  -0.1279985123E+02  -0.4460932006E-01   0.2239112425E+01  -0.1299985123E+02   0.0000000000E+00   0.0000000000E+00   0.0000000000E+00   0.2927310556E+01  -0.4074615378E+02   0.1909160120E+01   0.1423930544E+02  -0.5894207263E-02   0.1478218200E+01
  -0.5910806679E+00   0.3295781765E+01  -0.1232655566E+02  -0.2542378904E-02   0.3760671709E+01  -0.1232655566E+02   0.0000000000E+00   0.0000000000E+00   0.0000000000E+00  -0.6098514245E+02  -0.1269082542E+03  -0.5555653380E+02   0.3316493028E+02  -0.1879620122E+01  -0.1049642428E+02
  -0.6098343150E+00   0.1793316762E+01  -0.1205964397E+02  -0.2129602604E-01   0.2258206706E+01  -0.1225964397E+02   0.0000000000E+00   0.0000000000E+00   0.0000000000E+00  -0.2615711973E+02  -0.6246765289E+02  -0.1608106627E+02   0.1996156478E+02   0.2153717995E+01  -0.4420094994E+01
  -0.5755092003E+00   0.3207785509E+01  -0.1404888799E+02  -0.1346124226E-01   0.3903778932E+01  -0.1404888799E+02   0.0000000000E+00   0.0000000000E+00   0.0000000000E+00  -0.9666454605E+01  -0.5766681590E+02  -0.1751399965E+02   0.2337222238E+02  -0.1587059555E+01  -0.2919165721E+01
  -0.4605951202E+00   0.3338983573E+01  -0.1319067466E+02   0.8990357788E-02   0.3923782207E+01  -0.1319067466E+02   0.0000000000E+00   0.0000000000E+00   0.0000000000E+00  -0.5146133811E+02  -0.8432185042E+02  -0.4404251582E+02   0.2760755785E+02   0.1810437136E+01  -0.1031260842E+02
  -0.5834371238E+00   0.1647258593E+01  -0.1382031381E+02  -0.2138916582E-01   0.2343252016E+01  -0.1402031381E+02   0.0000000000E+00   0.0000000000E+00   0.0000000000E+00   0.5260254971E+01  -0.2060136748E+02   0.4385526132E+01   0.1280292092E+02  -0.2590871220E+00   0.6740411207E+00
  -0.4847638933E+00   0.1770915339E+01  -0.1294980050E+02  -0.1517841533E-01   0.2355713973E+01  -0.1314980050E+02   0.0000000000E+00   0.0000000000E+00   0.0000000000E+00  -0.1751335161E+02  -0.3483158494E+02  -0.9320278431E+01   0.1471750145E+02   0.4224444615E+01  -0.4994290814E+01
  -0.3604256785E+00   0.3245846276E+01  -0.1479422778E+02   0.1483899552E-01   0.4038091902E+01  -0.1479422778E+02   0.0000000000E+00   0.0000000000E+00   0.0000000000E+00  -0.6986830845E+01  -0.2915597690E+02  -0.1049825663E+02   0.1815241517E+02  -0.2785334226E+00  -0.1610698359E+01
  -0.3064728864E+00   0.3368496333E+01  -0.1386000277E+02   0.1742900557E-01   0.4044948552E+01  -0.1386000277E+02   0.0000000000E+00   0.0000000000E+00   0.0000000000E+00  -0.2825202895E+02  -0.3992970771E+02  -0.2473968454E+02   0.1725587479E+02   0.4366741716E+01  -0.5892315275E+01
  -0.3782851354E+00   0.1629933677E+01  -0.1458104820E+02  -0.3020461431E-02   0.2422179303E+01  -0.1478104820E+02   0.0000000000E+00   0.0000000000E+00   0.0000000000E+00   0.4709581100E+01  -0.8422650703E+01   0.3526528246E+01   0.8600233852E+01   0.4911689058E+00  -0.5163662100E+00
  -0.3310158729E+00   0.1747505638E+01  -0.1364453494E+02  -0.7113980893E-02   0.2423957857E+01  -0.1384453494E+02   0.0000000000E+00   0.0000000000E+00   0.0000000000E+00  -0.1766132806E+01  -0.1001046087E+02   0.9247929297E-01   0.7267843720E+01   0.4523554691E+01  -0.2874993433E+01
  -0.1560805665E+00   0.3262993973E+01  -0.1527775544E+02   0.2735736250E-01   0.4117170554E+01  -0.1527775544E+02   0.0000000000E+00   0.0000000000E+00   0.0000000000E+00  -0.8552270385E+01  -0.1673927830E+02  -0.9245443616E+01   0.9060928250E+01   0.9022703265E-01  -0.9476043301E+00
  -0.1362970444E+00   0.3382601779E+01  -0.1427119481E+02   0.2491061665E-01   0.4115071636E+01  -0.1427119481E+02   0.0000000000E+00   0.0000000000E+00   0.0000000000E+00  -0.6871253301E+01  -0.1173706778E+02  -0.9381474137E+01   0.6959164191E+01   0.3244818906E+01  -0.1178822513E+01
  -0.1735260840E+00   0.1612799212E+01  -0.1507221041E+02   0.9911845013E-02   0.2466975793E+01  -0.1527221042E+02   0.0000000000E+00   0.0000000000E+00   0.0000000000E+00   0.3493037670E+01  -0.5120467792E+01   0.1225268876E+01   0.3740332377E+01   0.3078995282E+00  -0.1260269206E+01
  -0.1557417688E+00   0.1728529915E+01  -0.1407205696E+02   0.5465892222E-02   0.2460999772E+01  -0.1427205696E+02   0.0000000000E+00   0.0000000000E+00   0.0000000000E+00   0.1355909601E+02   0.4409803843E+01   0.8038325840E+01   0.1916272193E+01   0.2794773473E+01  -0.1272851565E+01
   0.4151158890E-01   0.3259691727E+01  -0.1548129962E+02   0.3241791890E-01   0.4140383136E+01  -0.1548129962E+02   0.0000000000E+00   0.0000000000E+00   0.0000000000E+00  -0.8176572309E+01  -0.1295271556E+02  -0.8357092165E+01  -0.9078847355E+00  -0.6916389279E-01  -0.7332533784E+00
   0.3910979841E-01   0.3384631553E+01  -0.1439507644E+02   0.3312720441E-01   0.4134607711E+01  -0.1439507644E+02   0.0000000000E+00   0.0000000000E+00   0.0000000000E+00  -0.7166298772E+00  -0.6442357698E+01  -0.6015061589E+01  -0.7605929322E+00  -0.5500603320E+00  -0.3494932411E+00
   0.2954060008E-01   0.1599346142E+01  -0.1527790486E+02   0.2044693008E-01   0.2480037551E+01  -0.1547790487E+02   0.0000000000E+00   0.0000000000E+00   0.0000000000E+00   0.4776354850E+01  -0.3207506990E+01   0.1868349918E+01  -0.2658184630E+00  -0.1509515065E+00  -0.1392447699E+01
   0.2728896872E-01   0.1720863814E+01  -0.1420004636E+02   0.2130637472E-01   0.2470839972E+01  -0.1440004637E+02   0.0000000000E+00   0.0000000000E+00   0.0000000000E+00   0.1731569454E+02   0.6031573441E+01   0.8999589056E+01  -0.9114836683E-01  -0.5308326772E+00  -0.8406216979E+00
  -0.6663279962E+00   0.3110809635E+01  -0.1511260444E+02  -0.4978339218E-01   0.3943162750E+01  -0.1511260444E+02   0.0000000000E+00   0.0000000000E+00   0.0000000000E+00  -0.5102811159E+01  -0.6004119452E+02  -0.2081823848E+02   0.1904474391E+02  -0.4930262747E+00   0.8801848515E+00
  -0.6524349827E+00   0.1531309150E+01  -0.1489232132E+02  -0.3589037872E-01   0.2363662265E+01  -0.1509232132E+02   0.0000000000E+00   0.0000000000E+00   0.0000000000E+00   0.1435984544E+02  -0.1644150216E+02   0.7200011574E+01   0.1108555347E+02  -0.1088011739E+01   0.2797846668E+01
  -0.4082948689E+00   0.3133477069E+01  -0.1587959422E+02  -0.4098010936E-02   0.4060115791E+01  -0.1587959422E+02   0.0000000000E+00   0.0000000000E+00   0.0000000000E+00  -0.6161518142E+01  -0.3841126674E+02  -0.1540440135E+02   0.1531676194E+02  -0.1467606654E+01  -0.5099974578E+00
  -0.4119595905E+00   0.1508312243E+01  -0.1566796123E+02  -0.7762732502E-02   0.2434950965E+01  -0.1586796123E+02   0.0000000000E+00   0.0000000000E+00   0.0000000000E+00   0.9096602987E+01  -0.9525000747E+01   0.4367039531E+01   0.8053025797E+01  -0.1201923506E+01  -0.5227779879E-01
  -0.1802102650E+00   0.3140871514E+01  -0.1638097620E+02   0.1913626201E-01   0.4129099179E+01  -0.1638097620E+02   0.0000000000E+00   0.0000000000E+00   0.0000000000E+00  -0.7159794899E+01  -0.2274451352E+02  -0.1052129170E+02   0.8660762698E+01  -0.7797318549E+00  -0.1052271974E+01
  -0.1906737771E+00   0.1488185303E+01  -0.1617355097E+02   0.8672749870E-02   0.2476412968E+01  -0.1637355097E+02   0.0000000000E+00   0.0000000000E+00   0.0000000000E+00   0.6090271770E+01  -0.4462601461E+01   0.3671753572E+01   0.4374762883E+01  -0.7137025574E+00  -0.9724440718E+00
   0.3582797374E-01   0.3131224614E+01  -0.1663163994E+02   0.3210140974E-01   0.4150995354E+01  -0.1663163994E+02   0.0000000000E+00   0.0000000000E+00   0.0000000000E+00  -0.9050964956E+01  -0.1981680713E+02  -0.1044728973E+02  -0.8628014291E+00   0.6733903426E-01  -0.1311047160E+01
   0.2325814353E-01   0.1469924684E+01  -0.1642503393E+02   0.1953157953E-01   0.2489695424E+01  -0.1662503394E+02   0.0000000000E+00   0.0000000000E+00   0.0000000000E+00   0.4940858639E+01  -0.3446125083E+01   0.3245585872E+01  -0.4117357313E+00   0.3795062558E-01  -0.1484837744E+01
  -0.2004808990E+00   0.3007767741E+01  -0.1768483968E+02   0.9501376952E-02   0.4153763361E+01  -0.1768483968E+02   0.0000000000E+00   0.0000000000E+00   0.0000000000E+00  -0.5356178936E+01  -0.2752066369E+02  -0.1170144007E+02   0.5842231261E+01  -0.7883083649E+00  -0.3811895533E+00
   0.3398009929E-01   0.2992028952E+01  -0.1796324893E+02   0.3409003229E-01   0.4172308322E+01  -0.1796324893E+02   0.0000000000E+00   0.0000000000E+00   0.0000000000E+00  -0.7068681532E+01  -0.2532378499E+02  -0.1175044784E+02  -0.7353915589E+00   0.1044170091E+00  -0.5334876895E+00
  -0.2047922487E+00   0.1345703965E+01  -0.1747693255E+02   0.5190027290E-02   0.2491699585E+01  -0.1767693255E+02   0.0000000000E+00   0.0000000000E+00   0.0000000000E+00   0.7919143459E+01  -0.5447789032E+01   0.4255227885E+01   0.3351185599E+01  -0.1047881263E+01  -0.3601397861E+00
   0.2051736970E-01   0.1323111545E+01  -0.1775588551E+02   0.2062730270E-01   0.2503390915E+01  -0.1795588551E+02   0.0000000000E+00   0.0000000000E+00   0.0000000000E+00   0.6834519503E+01  -0.4299102223E+01   0.4043756221E+01  -0.4295022535E+00   0.4314594762E-01  -0.6564151497E+00
  -0.2151225375E+00   0.2871215997E+01  -0.1912553957E+02   0.1260278467E-02   0.4189847287E+01  -0.1912553957E+02   0.0000000000E+00   0.0000000000E+00   0.0000000000E+00  -0.3938099712E+01  -0.3109745838E+02  -0.1256367173E+02   0.3637373356E+01  -0.6689517172E+00   0.2413042106E+00
   0.3301307342E-01   0.2851522460E+01  -0.1940877452E+02   0.3547310642E-01   0.4204457180E+01  -0.1940877452E+02   0.0000000000E+00   0.0000000000E+00   0.0000000000E+00  -0.4753486281E+01  -0.2914530762E+02  -0.1226764663E+02  -0.4527687647E+00   0.3759087491E-01   0.1679486556E+00
  -0.2150667910E+00   0.1194124993E+01  -0.1891729168E+02   0.1316025037E-02   0.2512756283E+01  -0.1911729168E+02   0.0000000000E+00   0.0000000000E+00   0.0000000000E+00   0.9253874569E+01  -0.6588378859E+01   0.4470421195E+01   0.2253915941E+01  -0.1028852190E+01   0.4005247225E+00
   0.1896516641E-01   0.1169121858E+01  -0.1920101230E+02   0.2142519941E-01   0.2522056578E+01  -0.1940101231E+02   0.0000000000E+00   0.0000000000E+00   0.0000000000E+00   0.8410069548E+01  -0.5663491331E+01   0.4303622323E+01  -0.2502188934E+00   0.4036004101E-01   0.2081076353E+00
  -0.2239150765E+00   0.2734184262E+01  -0.2065023595E+02  -0.3994933494E-02   0.4233319642E+01  -0.2065023595E+02   0.0000000000E+00   0.0000000000E+00   0.0000000000E+00  -0.2154041902E+01  -0.3212526625E+02  -0.1215919787E+02   0.1887579011E+01  -0.4633459137E+00   0.6670529929E+00
   0.3260993432E-01   0.2712786858E+01  -0.2092246078E+02   0.3640729032E-01   0.4244450518E+01  -0.2092246078E+02   0.0000000000E+00   0.0000000000E+00   0.0000000000E+00  -0.2475606223E+01  -0.3066645050E+02  -0.1187224390E+02  -0.3973251855E+00   0.2044803943E-01   0.6417115880E+00
  -0.2214020565E+00   0.1038690836E+01  -0.2044191204E+02  -0.1481913472E-02   0.2537826216E+01  -0.2064191204E+02   0.0000000000E+00   0.0000000000E+00   0.0000000000E+00   0.9605953399E+01  -0.7766895029E+01   0.4111671556E+01   0.1268374692E+01  -0.8756532292E+00   0.1093414610E+01
   0.1814179683E-01   0.1013198877E+01  -0.2071463726E+02   0.2193915283E-01   0.2544862537E+01  -0.2091463726E+02   0.0000000000E+00   0.0000000000E+00   0.0000000000E+00   0.9087384062E+01  -0.7082233638E+01   0.3983063608E+01  -0.2224833480E+00   0.4095076800E-01   0.1004815591E+01
  -0.2284157985E+00   0.2596806645E+01  -0.2222831385E+02  -0.6590794515E-02   0.4280384185E+01  -0.2222831385E+02   0.0000000000E+00   0.0000000000E+00   0.0000000000E+00  -0.1844559352E+00  -0.3127971232E+02  -0.1107146488E+02   0.7352498702E+00  -0.3414367682E+00   0.9536239052E+00
   0.3252904681E-01   0.2575415441E+01  -0.2247889545E+02   0.3712164781E-01   0.4288620661E+01  -0.2247889545E+02   0.0000000000E+00   0.0000000000E+00   0.0000000000E+00  -0.9248470830E-02  -0.2997025724E+02  -0.1063056293E+02  -0.3981124615E+00   0.9080953666E-02   0.9512882074E+00
  -0.2248694904E+00   0.8814401094E+00  -0.2202050115E+02  -0.3044486376E-02   0.2565017649E+01  -0.2222050115E+02   0.0000000000E+00   0.0000000000E+00   0.0000000000E+00   0.9573185827E+01  -0.8484024152E+01   0.3560774600E+01   0.5635420559E+00  -0.6872277567E+00   0.1696881527E+01
   0.1771648463E-01   0.8569491705E+00  -0.2227160958E+02   0.2230908563E-01   0.2570154391E+01  -0.2247160958E+02   0.0000000000E+00   0.0000000000E+00   0.0000000000E+00   0.9243441564E+01  -0.8028378267E+01   0.3405395847E+01  -0.2252997937E+00   0.2908454199E-01   0.1666590816E+01