 VARIABLES = X,Y,Z,DU1,DU2,DU3,U1,U2,U3,S11,S22,S33,S12,S13,S23
 ZONE, T="0.1000D+01" F=FEPOINT, I= 3642 J= 2725 ET=BRICK
  -0.1707077482E+01  -0.8551879972E+00  -0.6372552046E-02   0.7975651821E-01  -0.2052852962E+00  -0.6372552046E-02   0.0000000000E+00   0.0000000000E+00   0.0000000000E+00  -0.2031767274E-01   0.5632837680E+01  -0.1156539647E-01   0.6058572873E+00   0.1960377196E-01  -0.3016667205E-01
  -0.1707322295E+01  -0.6268823927E+00  -0.4141532796E-02   0.8651715466E-01  -0.1933115007E+00  -0.4141532796E-02   0.0000000000E+00   0.0000000000E+00   0.0000000000E+00   0.7571338260E-01   0.5290386762E+01  -0.3239178583E-01   0.5505382429E+00   0.4088648467E-01  -0.2836007180E-01
  -0.1908549933E+01  -0.6223706322E+00  -0.5103326732E-02   0.9145006735E-01  -0.1902462562E+00  -0.5103326732E-02   0.0000000000E+00   0.0000000000E+00   0.0000000000E+00   0.7379675154E-01   0.4680016805E+01  -0.1189491672E-02   0.2197622269E+00  -0.4464001690E-03  -0.1041924079E+00
  -0.1914432970E+01  -0.8487620163E+00  -0.6632871695E-02   0.8556703011E-01  -0.2008211423E+00  -0.6632871695E-02   0.0000000000E+00   0.0000000000E+00   0.0000000000E+00   0.2743097432E-01   0.5271546692E+01   0.7693041028E-02   0.2308395410E+00  -0.7479395168E-03  -0.1119781284E+00
  -0.1707286323E+01  -0.8576151476E+00   0.1879905709E+00   0.7954767692E-01  -0.2077124466E+00  -0.1200943215E-01   0.0000000000E+00   0.0000000000E+00   0.0000000000E+00  -0.2938046087E-01   0.5711313143E+01  -0.1640905500E-01   0.4529599907E+00  -0.6500863459E-02  -0.2600591711E-01
  -0.1708131294E+01  -0.6291550067E+00   0.1904958812E+00   0.8570815618E-01  -0.1955841147E+00  -0.9504121818E-02   0.0000000000E+00   0.0000000000E+00   0.0000000000E+00   0.3674505665E-01   0.5332194341E+01  -0.5499751066E-01   0.4109968155E+00  -0.6456541082E-02  -0.2747780244E-01
  -0.1909243034E+01  -0.6245239929E+00   0.1900636310E+00   0.9075696606E-01  -0.1923996169E+00  -0.9936372013E-02   0.0000000000E+00   0.0000000000E+00   0.0000000000E+00   0.3404556218E-01   0.4703264120E+01   0.1166841660E-01   0.1334400425E+00  -0.7507868628E-02  -0.9496184913E-01
  -0.1914547068E+01  -0.8510509758E+00   0.1880263943E+00   0.8545293189E-01  -0.2031101018E+00  -0.1197360869E-01   0.0000000000E+00   0.0000000000E+00   0.0000000000E+00   0.7247512915E-02   0.5336866420E+01   0.1649505793E-01   0.1367246843E+00  -0.2297421170E-03  -0.1025996036E+00
  -0.1709132590E+01  -0.4033821037E+00  -0.2044614123E-02   0.9101470011E-01  -0.1823302317E+00  -0.2044614123E-02   0.0000000000E+00   0.0000000000E+00   0.0000000000E+00   0.1583092333E+00   0.5015011888E+01  -0.4107099465E-01   0.3408337312E+00   0.5490673910E-01  -0.1848106693E-01
  -0.1904736103E+01  -0.3999579785E+00  -0.3518009254E-02   0.9526389707E-01  -0.1809802295E+00  -0.3518009254E-02   0.0000000000E+00   0.0000000000E+00   0.0000000000E+00   0.9713344070E-01   0.4205281778E+01  -0.2291860383E-01   0.1287265310E+00   0.6385879346E-02  -0.6693852294E-01
  -0.1710402523E+01  -0.4055621600E+00   0.1928108521E+00   0.8974476652E-01  -0.1845102880E+00  -0.7189150861E-02   0.0000000000E+00   0.0000000000E+00   0.0000000000E+00   0.9767767724E-01   0.5028333146E+01  -0.7134208312E-01   0.2531622460E+00  -0.5937747527E-02  -0.1760503117E-01
  -0.1905877624E+01  -0.4020723664E+00   0.1920577370E+00   0.9412237579E-01  -0.1830946174E+00  -0.7942265955E-02   0.0000000000E+00   0.0000000000E+00   0.0000000000E+00   0.5089087978E-01   0.4198629393E+01  -0.1087289936E-01   0.7534119471E-01  -0.1405290664E-01  -0.6056382783E-01
  -0.1712816290E+01  -0.1842750384E+00   0.6113480274E-04   0.9225173005E-01  -0.1720036904E+00   0.6113480274E-04   0.0000000000E+00   0.0000000000E+00   0.0000000000E+00   0.1831526171E+00   0.4880349767E+01  -0.5571816678E-01   0.3971461412E-01   0.6405920782E-01  -0.1406041841E-02
  -0.1903833863E+01  -0.1841070140E+00  -0.1594559579E-02   0.9616613679E-01  -0.1727246980E+00  -0.1594559579E-02   0.0000000000E+00   0.0000000000E+00   0.0000000000E+00   0.1182881159E+00   0.4016536837E+01  -0.2022267326E-01   0.1598645511E-01   0.3441033525E-02  -0.8365753924E-02
  -0.1714278416E+01  -0.1864085615E+00   0.1950289939E+00   0.9078960408E-01  -0.1741372135E+00  -0.4971009145E-02   0.0000000000E+00   0.0000000000E+00   0.0000000000E+00   0.1142329638E+00   0.4885652531E+01  -0.9216512988E-01   0.3014853344E-01  -0.5981550632E-02  -0.1667610223E-02
  -0.1905167052E+01  -0.1862334453E+00   0.1941341665E+00   0.9483294837E-01  -0.1748511293E+00  -0.5865836471E-02   0.0000000000E+00   0.0000000000E+00   0.0000000000E+00   0.6191739730E-01   0.3990604617E+01  -0.1188191287E-01   0.9262126868E-02  -0.1412544893E-01  -0.7176937348E-02
  -0.1498573991E+01  -0.8613559172E+00  -0.5870512604E-02   0.7318034944E-01  -0.2076970502E+00  -0.5870512604E-02   0.0000000000E+00   0.0000000000E+00   0.0000000000E+00  -0.9007075518E-01   0.6150649431E+01   0.1109361515E-01   0.9245175868E+00   0.1973364313E-01   0.2537662952E-02
  -0.1505523420E+01  -0.6302958072E+00  -0.2710249915E-02   0.8093681041E-01  -0.1945483032E+00  -0.2710249915E-02   0.0000000000E+00   0.0000000000E+00   0.0000000000E+00   0.2281367308E+00   0.5973225663E+01   0.2388781224E-01   0.8858486998E+00   0.4912405718E-01   0.9126078690E-03
  -0.1498860111E+01  -0.8643871184E+00   0.1880385913E+00   0.7289422944E-01  -0.2107282514E+00  -0.1196141173E-01   0.0000000000E+00   0.0000000000E+00   0.0000000000E+00  -0.1044459333E+00   0.6185354000E+01  -0.9723937434E-02   0.7108252415E+00   0.1394273351E-01  -0.8382258581E-02
  -0.1506477363E+01  -0.6330985480E+00   0.1910944740E+00   0.7998286686E-01  -0.1973510440E+00  -0.8905529021E-02   0.0000000000E+00   0.0000000000E+00   0.0000000000E+00   0.1716269255E+00   0.6030668532E+01   0.1187034776E-01   0.6856746246E+00   0.2507964231E-01  -0.6004388003E-02
  -0.1514643036E+01  -0.4038461127E+00   0.2043443149E-04   0.8628336412E-01  -0.1824095827E+00   0.2043443149E-04   0.0000000000E+00   0.0000000000E+00   0.0000000000E+00   0.4895266183E+00   0.5753346714E+01   0.1623300259E-01   0.5608273676E+00   0.7655125188E-01   0.2947622897E-03
  -0.1516123441E+01  -0.4063492278E+00   0.1938065144E+00   0.8480295872E-01  -0.1849126978E+00  -0.6193488589E-02   0.0000000000E+00   0.0000000000E+00   0.0000000000E+00   0.3905434810E+00   0.5831744210E+01  -0.2254408435E-02   0.4319347546E+00   0.3634343740E-01  -0.3343744949E-02
  -0.1526333658E+01  -0.1796203973E+00   0.2375315569E-02   0.8795503159E-01  -0.1709877863E+00   0.2375315569E-02   0.0000000000E+00   0.0000000000E+00   0.0000000000E+00   0.6006547132E+00   0.5650050775E+01   0.2953013053E-01   0.4858217537E-01   0.8711646237E-01   0.3229743660E-02
  -0.1528026674E+01  -0.1817777806E+00   0.1961784891E+00   0.8626201628E-01  -0.1731451696E+00  -0.3821513912E-02   0.0000000000E+00   0.0000000000E+00   0.0000000000E+00   0.4814063104E+00   0.5737257173E+01   0.1164803160E-01   0.3596016538E-01   0.4144569140E-01   0.1919829260E-02
  -0.1286828468E+01  -0.8708315663E+00  -0.5463420306E-02   0.6541626170E-01  -0.2102729253E+00  -0.5463420306E-02   0.0000000000E+00   0.0000000000E+00   0.0000000000E+00  -0.3643706333E+00   0.6629651549E+01  -0.1302068397E-01   0.9686214342E+00   0.4878790441E-01   0.2728471248E-01
  -0.1302886246E+01  -0.6340289951E+00  -0.1221737305E-02   0.7483482355E-01  -0.1954064011E+00  -0.1221737305E-02   0.0000000000E+00   0.0000000000E+00   0.0000000000E+00   0.2295743672E+00   0.6480102881E+01  -0.2508025598E-01   0.1061142088E+01   0.6926558779E-01   0.3149955375E-01
  -0.1286983427E+01  -0.8746013157E+00   0.1881688611E+00   0.6526130293E-01  -0.2140426747E+00  -0.1183114185E-01   0.0000000000E+00   0.0000000000E+00   0.0000000000E+00  -0.2497792075E+00   0.6680867040E+01  -0.2468318626E-01   0.7228713035E+00   0.3470801785E-01   0.1386218856E-01
  -0.1303938128E+01  -0.6375329782E+00   0.1919754614E+00   0.7378294209E-01  -0.1989103842E+00  -0.8024541575E-02   0.0000000000E+00   0.0000000000E+00   0.0000000000E+00   0.2454461210E+00   0.6616371459E+01  -0.6113709294E-01   0.7973204531E+00   0.5547060604E-01   0.1372778337E-01
  -0.1320870008E+01  -0.4049368503E+00   0.2309136802E-02   0.8164659180E-01  -0.1822266583E+00   0.2309136802E-02   0.0000000000E+00   0.0000000000E+00   0.0000000000E+00   0.8042586541E+00   0.6223146694E+01  -0.1770580631E-01   0.6923294334E+00   0.9295635504E-01   0.2406128131E-01
  -0.1322643332E+01  -0.4078757004E+00   0.1952054949E+00   0.7987326798E-01  -0.1851655084E+00  -0.4794508052E-02   0.0000000000E+00   0.0000000000E+00   0.0000000000E+00   0.7314341820E+00   0.6466852466E+01  -0.4434329129E-01   0.5135617350E+00   0.7585255209E-01   0.1440316441E-01
  -0.1338751476E+01  -0.1804115416E+00   0.4879677254E-02   0.8388455399E-01  -0.1702130636E+00   0.4879677254E-02   0.0000000000E+00   0.0000000000E+00   0.0000000000E+00   0.1009127334E+01   0.6063257443E+01  -0.2303275595E-01   0.6954712783E-01   0.1063710724E+00   0.3916134801E-02
  -0.1340794913E+01  -0.1826090624E+00   0.1977330196E+00   0.8184111681E-01  -0.1724105844E+00  -0.2266983421E-02   0.0000000000E+00   0.0000000000E+00   0.0000000000E+00   0.9030122582E+00   0.6367991077E+01  -0.4796424930E-01   0.5243533627E-01   0.8313512269E-01   0.4343946694E-02
  -0.1066331419E+01  -0.8862828539E+00  -0.5411637243E-02   0.5556938067E-01  -0.2148278279E+00  -0.5411637243E-02   0.0000000000E+00   0.0000000000E+00   0.0000000000E+00  -0.8268794007E+00   0.7235498571E+01   0.4786078259E-01   0.6482909597E+00  -0.1740210568E-01   0.6015597726E-01
  -0.1100965841E+01  -0.6380179336E+00   0.5768433458E-03   0.6809057853E-01  -0.1970908456E+00   0.5768433458E-03   0.0000000000E+00   0.0000000000E+00   0.0000000000E+00   0.1616300665E+00   0.7244390116E+01   0.3915802524E-01   0.9944081627E+00   0.5006459263E-01   0.7478438376E-01
  -0.1065996863E+01  -0.8909807637E+00   0.1879728972E+00   0.5590393710E-01  -0.2195257377E+00  -0.1202710575E-01   0.0000000000E+00   0.0000000000E+00   0.0000000000E+00  -0.5913202613E+00   0.7171210142E+01   0.1768687575E-01   0.3419082533E+00   0.1156328156E-01   0.4286268667E-01
  -0.1101971706E+01  -0.6425291508E+00   0.1930227127E+00   0.6708471376E-01  -0.2016020628E+00  -0.6977290256E-02   0.0000000000E+00   0.0000000000E+00   0.0000000000E+00   0.2673623645E+00   0.7367917824E+01  -0.1338080001E-02   0.6031605583E+00   0.8067452627E-01   0.7424204912E-01
  -0.1131398926E+01  -0.4048478115E+00   0.5269607647E-02   0.7717298420E-01  -0.1822393045E+00   0.5269607647E-02   0.0000000000E+00   0.0000000000E+00   0.0000000000E+00   0.1131888798E+01   0.6954784040E+01   0.4479559806E-01   0.7843625038E+00   0.1282579796E+00   0.4989720760E-01
  -0.1133582090E+01  -0.4084538150E+00   0.1970659452E+00   0.7498981974E-01  -0.1858453080E+00  -0.2934057793E-02   0.0000000000E+00   0.0000000000E+00   0.0000000000E+00   0.1052585351E+01   0.7348642666E+01  -0.1690263853E-01   0.4977968724E+00   0.1576536358E+00   0.4948706493E-01
  -0.1154970232E+01  -0.1811861939E+00   0.8162805456E-02   0.8026629771E-01  -0.1694633909E+00   0.8162805456E-02   0.0000000000E+00   0.0000000000E+00   0.0000000000E+00   0.1496519400E+01   0.6767723092E+01   0.5524386377E-01   0.8113527180E-01   0.1351577612E+00   0.1041230295E-01
  -0.1157584615E+01  -0.1834409001E+00   0.1997883669E+00   0.7765191500E-01  -0.1717180971E+00  -0.2116361216E-03   0.0000000000E+00   0.0000000000E+00   0.0000000000E+00   0.1323823561E+01   0.7264935990E+01  -0.1772211090E-01   0.5649816584E-01   0.1716172962E+00   0.9005486481E-02
  -0.8168619581E+00  -0.9133397672E+00  -0.7636490563E-02   0.4172673791E-01  -0.2263834812E+00  -0.7636490563E-02   0.0000000000E+00   0.0000000000E+00   0.0000000000E+00  -0.1577169097E+01   0.7357383280E+01  -0.9921586268E-02  -0.3057771909E+00  -0.4639947072E-01   0.1320614617E+00
  -0.9071129239E+00  -0.6340006449E+00   0.2339535316E-02   0.6070784012E-01  -0.2009531719E+00   0.2339535316E-02   0.0000000000E+00   0.0000000000E+00   0.0000000000E+00  -0.1757989926E+00   0.8105062894E+01  -0.5242053751E-01   0.9009831320E+00   0.1423189564E+00   0.2369044603E+00
  -0.8150250819E+00  -0.9191222030E+00   0.1865197947E+00   0.4356361412E-01  -0.2321659170E+00  -0.1348020835E-01   0.0000000000E+00   0.0000000000E+00   0.0000000000E+00  -0.1031504059E+01   0.6988849145E+01  -0.3547614484E-01  -0.5283096206E+00  -0.2915860764E-01   0.1126703426E+00
  -0.9077186711E+00  -0.6399593374E+00   0.1942831940E+00   0.6010209287E-01  -0.2069118644E+00  -0.5716808966E-02   0.0000000000E+00   0.0000000000E+00   0.0000000000E+00   0.2523475908E+00   0.8246589881E+01  -0.9460062413E-01   0.2976104651E+00   0.1107982027E+00   0.2082300598E+00
  -0.9547709531E+00  -0.3979736058E+00   0.8968805673E-02   0.7270738688E-01  -0.1828996328E+00   0.8968805673E-02   0.0000000000E+00   0.0000000000E+00   0.0000000000E+00   0.1168325019E+01   0.7852601619E+01  -0.4895340551E-01   0.7145834511E+00   0.2763491552E+00   0.1454598708E+00
  -0.9572980248E+00  -0.4024656009E+00   0.1995604873E+00   0.7018031517E-01  -0.1873916279E+00  -0.4395157178E-03   0.0000000000E+00   0.0000000000E+00   0.0000000000E+00   0.1310071597E+01   0.8620575123E+01  -0.1064700791E+00   0.2718513390E+00   0.1994959734E+00   0.1252524942E+00
  -0.9811240169E+00  -0.1810227023E+00   0.1225407667E-01   0.7660856314E-01  -0.1687613933E+00   0.1225407667E-01   0.0000000000E+00   0.0000000000E+00   0.0000000000E+00   0.1706657126E+01   0.7563769309E+01  -0.7278329993E-01   0.1251854296E+00   0.3348208526E+00   0.1492201707E-01
  -0.9843229680E+00  -0.1833585114E+00   0.2025620713E+00   0.7340961201E-01  -0.1710972024E+00   0.2562068263E-02   0.0000000000E+00   0.0000000000E+00   0.0000000000E+00   0.1702309739E+01   0.8546740237E+01  -0.1541648128E+00   0.8024097824E-01   0.2531236781E+00   0.1953578834E-01
  -0.8063385057E+00  -0.3836500204E+00   0.1343875135E-01   0.6804351326E-01  -0.1852307324E+00   0.1343875135E-01   0.0000000000E+00   0.0000000000E+00   0.0000000000E+00   0.1138199969E+01   0.9917770854E+01   0.3704586458E+00  -0.3413517585E+00   0.2519721317E+00   0.2653163636E+00
  -0.8299289742E+00  -0.1725779105E+00   0.1749420802E-01   0.7225694281E-01  -0.1675253685E+00   0.1749420802E-01   0.0000000000E+00   0.0000000000E+00   0.0000000000E+00   0.1437329120E+01   0.1021051992E+02   0.3755240662E+00   0.7718101213E-01   0.3390599149E+00   0.3657680322E-01
  -0.8091366949E+00  -0.3890385357E+00   0.2019703220E+00   0.6524532415E-01  -0.1906192477E+00   0.1970318960E-02   0.0000000000E+00   0.0000000000E+00   0.0000000000E+00   0.1481048083E+01   0.1114226725E+02   0.5693930339E+00  -0.8859418694E+00   0.9061456257E-01   0.2114790712E+00
  -0.8337358208E+00  -0.1749263404E+00   0.2053657064E+00   0.6845009620E-01  -0.1698737984E+00   0.5365703436E-02   0.0000000000E+00   0.0000000000E+00   0.0000000000E+00   0.1616995321E+01   0.1184166005E+02   0.5859723253E+00   0.3395235484E-01   0.1467198911E+00   0.3058994484E-01
  -0.6708375908E+00  -0.3557874707E+00   0.1720875648E-01   0.6084977619E-01  -0.1910648047E+00   0.1720875648E-01   0.0000000000E+00   0.0000000000E+00   0.0000000000E+00   0.4286244936E+00   0.1317594730E+02   0.3057111068E+00  -0.2287315305E+01  -0.1131671756E+00   0.4607904841E+00
  -0.6871801058E+00  -0.1667523953E+00   0.2158028179E-01   0.6281989417E-01  -0.1667523953E+00   0.2158028179E-01   0.0000000000E+00   0.0000000000E+00   0.0000000000E+00   0.8326502512E-01   0.1474776414E+02   0.3947734310E+00  -0.1014872944E+00   0.2477990547E-01   0.6075663498E-01
  -0.6742008336E+00  -0.3612702371E+00   0.2045992535E+00   0.5748653344E-01  -0.1965475711E+00   0.4599250529E-02   0.0000000000E+00   0.0000000000E+00   0.0000000000E+00   0.7980137418E+00   0.1469820010E+02   0.4193219766E+00  -0.2847441883E+01  -0.1312334586E+00   0.3814522220E+00
  -0.6916836394E+00  -0.1689882963E+00   0.2080047125E+00   0.5831636056E-01  -0.1689882963E+00   0.8004709547E-02   0.0000000000E+00   0.0000000000E+00   0.0000000000E+00   0.2753705966E+00   0.1671682245E+02   0.5447439213E+00  -0.1270979162E+00  -0.5331956849E-01   0.4893458398E-01
  -0.7588102960E+00  -0.5993354217E+00   0.5102280754E-02   0.5639253603E-01  -0.2052560347E+00   0.5102280754E-02   0.0000000000E+00   0.0000000000E+00   0.0000000000E+00   0.3162208196E+00   0.8521693463E+01   0.2192420078E+00  -0.7754581935E+00   0.4339211257E-01   0.3833681269E+00
  -0.7590036053E+00  -0.6065491809E+00   0.1959119714E+00   0.5619922674E-01  -0.2124697939E+00  -0.4088031551E-02   0.0000000000E+00   0.0000000000E+00   0.0000000000E+00   0.9891948261E+00   0.8935055301E+01   0.3353957256E+00  -0.1424360751E+01  -0.3902756087E-01   0.3089185239E+00
  -0.6225550029E+00  -0.5387237531E+00   0.8457732371E-02   0.5421485006E-01  -0.2154861551E+00   0.8457732371E-02   0.0000000000E+00   0.0000000000E+00   0.0000000000E+00   0.1121375327E+01   0.9664005090E+01   0.1867213773E+00  -0.3418405967E+01  -0.3842704943E+00   0.7523209978E+00
  -0.6231420280E+00  -0.5460506595E+00   0.1984308818E+00   0.5362782495E-01  -0.2228130615E+00  -0.1569121235E-02   0.0000000000E+00   0.0000000000E+00   0.0000000000E+00   0.1785512062E+01   0.1029647903E+02   0.2276253140E+00  -0.4088678023E+01  -0.3473205672E+00   0.6253206603E+00
  -0.6722144209E+00  -0.7918844795E+00  -0.4873094860E-02   0.4126360807E-01  -0.2277039865E+00  -0.4873094860E-02   0.0000000000E+00   0.0000000000E+00   0.0000000000E+00  -0.7227961460E+00   0.6938295869E+01   0.4569464687E-01  -0.1330836466E+01  -0.2164127174E+00   0.3659760168E+00
  -0.6696592183E+00  -0.7988953504E+00   0.1888245682E+00   0.4381881072E-01  -0.2347148574E+00  -0.1117543483E-01   0.0000000000E+00   0.0000000000E+00   0.0000000000E+00   0.5405540033E-01   0.6494739210E+01   0.5448010702E-01  -0.1629671214E+01  -0.2099428467E+00   0.3153021012E+00
  -0.5437289009E+00  -0.7036153623E+00  -0.2770371677E-02   0.4480938812E-01  -0.2387254183E+00  -0.2770371677E-02   0.0000000000E+00   0.0000000000E+00   0.0000000000E+00   0.1316796214E+01   0.5572313283E+01   0.7065561254E-01  -0.2836104644E+01  -0.5952822417E+00   0.7651878849E+00
  -0.5412505522E+00  -0.7107946177E+00   0.1907007888E+00   0.4728773678E-01  -0.2459046737E+00  -0.9299214218E-02   0.0000000000E+00   0.0000000000E+00   0.0000000000E+00   0.1992500632E+01   0.5330077798E+01   0.8176339423E-01  -0.3137692337E+01  -0.5126519478E+00   0.6412292534E+00
  -0.5347452032E+00  -0.9485104693E+00  -0.1504671303E-01   0.2730275479E-01  -0.2525170463E+00  -0.1504671303E-01   0.0000000000E+00   0.0000000000E+00   0.0000000000E+00  -0.1003314560E+01   0.4257349519E+01  -0.5495516197E-01  -0.1696822183E+01  -0.3624432176E+00   0.1331592696E+00
  -0.4350408051E+00  -0.8447110496E+00  -0.1470362553E-01   0.3454467292E-01  -0.2599124156E+00  -0.1470362553E-01   0.0000000000E+00   0.0000000000E+00   0.0000000000E+00   0.2451168917E+00   0.2374981168E+01  -0.1375814399E+00  -0.1302331159E+01  -0.7628607178E+00   0.6015001474E+00
  -0.5301937219E+00  -0.9537833500E+00   0.1817195561E+00   0.3185423606E-01  -0.2577899270E+00  -0.1828044693E-01   0.0000000000E+00   0.0000000000E+00   0.0000000000E+00  -0.6664520998E+00   0.3555440200E+01  -0.1155213857E+00  -0.1417026480E+01  -0.2945401150E+00   0.1678569608E+00
  -0.4305148523E+00  -0.8497747692E+00   0.1826561649E+00   0.3907062568E-01  -0.2649761352E+00  -0.1734383812E-01   0.0000000000E+00   0.0000000000E+00   0.0000000000E+00   0.4482083309E+00   0.1720011231E+01  -0.1875422633E+00  -0.1046050667E+01  -0.6068668875E+00   0.5213589740E+00
  -0.3577617415E+00  -0.1067523831E+01  -0.2482443296E-01   0.1750293247E-01  -0.2752782050E+00  -0.2482443296E-01   0.0000000000E+00   0.0000000000E+00   0.0000000000E+00  -0.1524976506E+01   0.1641998428E+01  -0.2158192285E+00  -0.1405594836E+01  -0.4214624158E+00  -0.6166825193E-01
  -0.2991835046E+00  -0.9535296056E+00  -0.2522752218E-01   0.2471838736E-01  -0.2770773866E+00  -0.2522752218E-01   0.0000000000E+00   0.0000000000E+00   0.0000000000E+00  -0.1835957705E+01   0.5863120702E+00  -0.2757353213E+00   0.6699548321E-01  -0.6903913939E+00   0.2800422674E+00
  -0.3530975205E+00  -0.1070018064E+01   0.1751325280E+00   0.2216715351E-01  -0.2777724377E+00  -0.2486747501E-01   0.0000000000E+00   0.0000000000E+00   0.0000000000E+00  -0.1960719261E+01   0.1104167080E+01  -0.3560710295E+00  -0.7821860958E+00  -0.3248027938E+00   0.3269754452E-01
  -0.2944461561E+00  -0.9556293316E+00   0.1756035989E+00   0.2945573593E-01  -0.2791771126E+00  -0.2439640411E-01   0.0000000000E+00   0.0000000000E+00   0.0000000000E+00  -0.2495230691E+01   0.2895638558E-01  -0.4355036715E+00   0.6895462336E+00  -0.5407625956E+00   0.2781453816E+00
  -0.1716115667E+00  -0.1143627111E+01  -0.3117172554E-01   0.1182636233E-01  -0.2894505301E+00  -0.3117172554E-01   0.0000000000E+00   0.0000000000E+00   0.0000000000E+00  -0.1911703489E+01   0.1905585780E+00  -0.2978272656E+00  -0.7081254688E+00  -0.2344426141E+00  -0.2554862302E+00
  -0.1452214617E+00  -0.1020066248E+01  -0.3223531438E-01   0.1598619930E-01  -0.2875963907E+00  -0.3223531438E-01   0.0000000000E+00   0.0000000000E+00   0.0000000000E+00  -0.4042400926E+01   0.1208599216E+00  -0.4176357970E+00   0.4691692929E+00  -0.3977094929E+00   0.1052774117E-01
  -0.1687814407E+00  -0.1143836047E+01   0.1707815200E+00   0.1465648828E-01  -0.2896594664E+00  -0.2921848296E-01   0.0000000000E+00   0.0000000000E+00   0.0000000000E+00  -0.3156987647E+01  -0.4846818232E-01  -0.4955124944E+00  -0.2437129921E+00  -0.1842252804E+00  -0.8202278859E-01
  -0.1423434237E+00  -0.1019736781E+01   0.1709379447E+00   0.1886423732E-01  -0.2872669243E+00  -0.2906205831E-01   0.0000000000E+00   0.0000000000E+00   0.0000000000E+00  -0.5504554744E+01  -0.1084087596E+00  -0.5959689489E+00   0.9258731737E+00  -0.3112741137E+00   0.9584423869E-01
   0.1803382953E-01  -0.1173855250E+01  -0.3299482455E-01   0.8940159530E-02  -0.2931638413E+00  -0.3299482455E-01   0.0000000000E+00   0.0000000000E+00   0.0000000000E+00  -0.1982075176E+01  -0.2287967431E+00  -0.2972944115E+00   0.8723448436E-01   0.1527243979E-01  -0.3205103972E+00
   0.1392353819E-01  -0.1040157901E+01  -0.3438933349E-01   0.7940944192E-02  -0.2901817426E+00  -0.3438933349E-01   0.0000000000E+00   0.0000000000E+00   0.0000000000E+00  -0.4850420876E+01   0.1871160442E+00  -0.4121147324E+00  -0.2818594259E-01   0.4775817526E-01  -0.7109801993E-01
   0.1786414124E-01  -0.1173389067E+01   0.1694536334E+00   0.8770471242E-02  -0.2926976580E+00  -0.3054636957E-01   0.0000000000E+00   0.0000000000E+00   0.0000000000E+00  -0.3485606691E+01  -0.3085301996E+00  -0.4779888501E+00   0.4203429107E-01   0.2751598672E-01  -0.1392683079E+00
   0.1379241997E-01  -0.1039005444E+01   0.1694555517E+00   0.7809825972E-02  -0.2890292862E+00  -0.3054445131E-01   0.0000000000E+00   0.0000000000E+00   0.0000000000E+00  -0.6623123435E+01   0.6133528846E-01  -0.6272586902E+00  -0.6838407686E-01   0.4750306242E-01   0.3692890912E-01
  -0.5924978154E+00  -0.1087457542E+01  -0.1692910139E-01   0.2404678862E-01  -0.2551044272E+00  -0.1692910139E-01   0.0000000000E+00   0.0000000000E+00   0.0000000000E+00  -0.1973580031E+01   0.5271707236E+01   0.5903618234E-01  -0.1971835129E+01  -0.2189705147E+00   0.1710402584E-01
  -0.5888113849E+00  -0.1091872233E+01   0.1796381022E+00   0.2773321907E-01  -0.2595191178E+00  -0.2036190083E-01   0.0000000000E+00   0.0000000000E+00   0.0000000000E+00  -0.1501785647E+01   0.4711191044E+01   0.9464231779E-01  -0.1643749907E+01  -0.1848214848E+00   0.1733050331E-01
  -0.3895163788E+00  -0.1203750026E+01  -0.2481154653E-01   0.1468047924E-01  -0.2771113036E+00  -0.2481154653E-01   0.0000000000E+00   0.0000000000E+00   0.0000000000E+00  -0.1316891725E+01   0.2598282075E+01  -0.1113755450E-01  -0.2117800642E+01  -0.2640678712E+00  -0.1333362078E+00
  -0.3857954141E+00  -0.1205981552E+01   0.1740971340E+00   0.1840144394E-01  -0.2793428297E+00  -0.2590286901E-01   0.0000000000E+00   0.0000000000E+00   0.0000000000E+00  -0.1536294302E+01   0.2246419443E+01   0.6505841136E-03  -0.1559125982E+01  -0.2074190761E+00  -0.8684789308E-01
  -0.1885101132E+00  -0.1278696903E+01  -0.2952609589E-01   0.1083641384E-01  -0.2904692380E+00  -0.2952609589E-01   0.0000000000E+00   0.0000000000E+00   0.0000000000E+00  -0.5885583807E+00   0.7860657712E+00   0.3679500685E-01  -0.1324643236E+01  -0.1374984538E+00  -0.2832842546E+00
  -0.1863161552E+00  -0.1279317772E+01   0.1706272577E+00   0.1303037182E-01  -0.2910901071E+00  -0.2937274533E-01   0.0000000000E+00   0.0000000000E+00   0.0000000000E+00  -0.1383187167E+01   0.7210298324E+00   0.7183590045E-01  -0.9357266969E+00  -0.1191965459E+00  -0.1986533967E+00
   0.1353489428E-01  -0.1313772076E+01  -0.3093622038E-01   0.9808330279E-02  -0.2940013361E+00  -0.3093622038E-01   0.0000000000E+00   0.0000000000E+00   0.0000000000E+00  -0.2963001259E+00   0.1904142836E+00   0.2424440675E-01   0.6384687755E-01   0.3425298606E-02  -0.3096163256E+00
   0.1350705644E-01  -0.1313912239E+01   0.1695196193E+00   0.9780492435E-02  -0.2941414991E+00  -0.3048038370E-01   0.0000000000E+00   0.0000000000E+00   0.0000000000E+00  -0.1255429082E+01   0.2657075598E+00   0.7379624809E-01   0.3249275903E-01   0.1397896547E-01  -0.2320539500E+00
  -0.1986588014E+00  -0.1438078665E+01  -0.2877370472E-01   0.1132347459E-01  -0.2920830452E+00  -0.2877370472E-01   0.0000000000E+00   0.0000000000E+00   0.0000000000E+00  -0.1586971409E+00   0.1260834834E+01  -0.2936865719E-01  -0.1184427326E+01  -0.6748262498E-01  -0.1373781443E+00
   0.1055990217E-01  -0.1475291662E+01  -0.2987573860E-01   0.1066983517E-01  -0.2950122919E+00  -0.2987573860E-01   0.0000000000E+00   0.0000000000E+00   0.0000000000E+00   0.1091639252E+00   0.7902959152E+00  -0.4124651371E-01   0.3421819712E-01   0.6665103406E-02  -0.1509684688E+00
  -0.1970984900E+00  -0.1439132669E+01   0.1702337974E+00   0.1288378605E-01  -0.2931370491E+00  -0.2976620565E-01   0.0000000000E+00   0.0000000000E+00   0.0000000000E+00  -0.6164044862E+00   0.1394107919E+01   0.2861211888E-01  -0.9340990438E+00  -0.5833891159E-01  -0.1668494463E+00
   0.1062061022E-01  -0.1476089446E+01   0.1693213514E+00   0.1073054322E-01  -0.2958100763E+00  -0.3067865157E-01   0.0000000000E+00   0.0000000000E+00   0.0000000000E+00  -0.4325500808E+00   0.1011211247E+01   0.1675054170E-01   0.1889935146E-01   0.9268824856E-02  -0.1802042136E+00
  -0.2038698133E+00  -0.1613228761E+01  -0.2891837851E-01   0.1251300272E-01  -0.2945974714E+00  -0.2891837851E-01   0.0000000000E+00   0.0000000000E+00   0.0000000000E+00   0.1453588188E+00   0.1827779519E+01   0.8784838994E-02  -0.9667097778E+00  -0.3930236167E-01  -0.1018379311E+00
   0.9143334742E-02  -0.1649705935E+01  -0.2984060211E-01   0.1160336774E-01  -0.2967712153E+00  -0.2984060211E-01   0.0000000000E+00   0.0000000000E+00   0.0000000000E+00   0.3627883175E+00   0.1508056810E+01   0.1195427696E-01   0.1177362770E-01   0.1585753666E-02  -0.1058979187E+00
  -0.2027979034E+00  -0.1614845357E+01   0.1691527856E+00   0.1358491264E-01  -0.2962140674E+00  -0.3084721744E-01   0.0000000000E+00   0.0000000000E+00   0.0000000000E+00  -0.1392581870E+00   0.1994815134E+01   0.3752713121E-01  -0.8121431963E+00  -0.2037062360E-01  -0.9182384123E-01
   0.9250453825E-02  -0.1651195217E+01   0.1683369523E+00   0.1171048682E-01  -0.2982604967E+00  -0.3166305069E-01   0.0000000000E+00   0.0000000000E+00   0.0000000000E+00   0.3414385150E-01   0.1727847224E+01   0.4771079847E-01   0.3209298059E-02   0.5657298034E-02  -0.9115430024E-01
  -0.2060027791E+00  -0.1797187383E+01  -0.2996032583E-01   0.1391736388E-01  -0.2980520035E+00  -0.2996032583E-01   0.0000000000E+00   0.0000000000E+00   0.0000000000E+00   0.2979582938E+00   0.2331025568E+01   0.3030982276E-02  -0.7390065661E+00  -0.1866112423E-01  -0.5335202541E-01
   0.8813499033E-02  -0.1831334112E+01  -0.3079862697E-01   0.1261085503E-01  -0.2996704521E+00  -0.3079862697E-01   0.0000000000E+00   0.0000000000E+00   0.0000000000E+00   0.4445182261E+00   0.2110468779E+01  -0.2138791851E-03  -0.4548896833E-02  -0.4775487279E-03  -0.5442632462E-01
  -0.2052370396E+00  -0.1799289657E+01   0.1673957446E+00   0.1468310338E-01  -0.3001542770E+00  -0.3260425836E-01   0.0000000000E+00   0.0000000000E+00   0.0000000000E+00   0.1425340250E+00   0.2519947558E+01   0.2715298928E-01  -0.6508991834E+00  -0.1658561091E-02  -0.4104245754E-01
   0.8941356460E-02  -0.1833396524E+01   0.1666306024E+00   0.1273871246E-01  -0.3017328639E+00  -0.3336940064E-01   0.0000000000E+00   0.0000000000E+00   0.0000000000E+00   0.2578031175E+00   0.2319673039E+01   0.1576476707E-01  -0.1004062121E-01   0.3029484484E-02  -0.4343479139E-01
  -0.2064749785E+00  -0.1985966837E+01  -0.3169805563E-01   0.1535002549E-01  -0.3023892966E+00  -0.3169805563E-01   0.0000000000E+00   0.0000000000E+00   0.0000000000E+00   0.4305986998E+00   0.2778587606E+01   0.7475057446E-02  -0.5710632545E+00  -0.9565420861E-02  -0.3699650032E-01
   0.9097359777E-02  -0.2016691375E+01  -0.3247676151E-01   0.1368996078E-01  -0.3034861552E+00  -0.3247676151E-01   0.0000000000E+00   0.0000000000E+00   0.0000000000E+00   0.5259221091E+00   0.2617186151E+01   0.3328369345E-02  -0.9237295669E-02  -0.9753116705E-03  -0.4279923044E-01
  -0.2058925100E+00  -0.1988530855E+01   0.1650665149E+00   0.1593249405E-01  -0.3049533154E+00  -0.3493348811E-01   0.0000000000E+00   0.0000000000E+00   0.0000000000E+00   0.3182666103E+00   0.2939453745E+01   0.6965363025E-02  -0.5206054393E+00   0.6806970809E-02  -0.1688873732E-01
   0.9244486504E-02  -0.2019256708E+01   0.1643498017E+00   0.1383708750E-01  -0.3060514878E+00  -0.3565020134E-01   0.0000000000E+00   0.0000000000E+00   0.0000000000E+00   0.4068771101E+00   0.2798179931E+01   0.5762430695E-02  -0.1580023624E-01   0.5329261306E-02  -0.1970299980E-01