 VARIABLES = X,Y,Z,DU1,DU2,DU3,U1,U2,U3,e11,e22,e33,e12,e13,e23,S11,S22,S33,S12,S13,S23
 ZONE, T="0.5000D-01" F=FEPOINT, I=   12 J=    2 ET=BRICK
   0.0000000000E+00   0.0000000000E+00   0.0000000000E+00   0.0000000000E+00   0.0000000000E+00   0.0000000000E+00   0.0000000000E+00   0.0000000000E+00   0.0000000000E+00   0.0000000000E+00   0.0000000000E+00   0.0000000000E+00   0.0000000000E+00   0.0000000000E+00   0.0000000000E+00   0.9988341484E+00   0.2538608043E-09   0.2538607411E-09   0.1618478210E-17  -0.1035233445E-15  -0.3664633479E-16
   0.1010000000E+01   0.0000000000E+00  -0.1159220934E-17   0.1000000000E-01   0.0000000000E+00  -0.1159220934E-17   0.0000000000E+00   0.0000000000E+00   0.0000000000E+00   0.0000000000E+00   0.0000000000E+00   0.0000000000E+00   0.0000000000E+00   0.0000000000E+00   0.0000000000E+00   0.9988341483E+00   0.2538604641E-09   0.2538603007E-09   0.1169529042E-15   0.1633627114E-15   0.3379830239E-16
   0.1010000000E+01   0.9951664724E+00  -0.1922227860E-18   0.1000000000E-01  -0.4833527642E-02  -0.1922227860E-18   0.0000000000E+00   0.0000000000E+00   0.0000000000E+00   0.0000000000E+00   0.0000000000E+00   0.0000000000E+00   0.0000000000E+00   0.0000000000E+00   0.0000000000E+00   0.9988341482E+00   0.2538643672E-09   0.2538642914E-09   0.1144387185E-15  -0.1799061415E-15   0.2065780104E-16
   0.0000000000E+00   0.9951664724E+00  -0.3355614847E-18   0.0000000000E+00  -0.4833527642E-02  -0.3355614847E-18   0.0000000000E+00   0.0000000000E+00   0.0000000000E+00   0.0000000000E+00   0.0000000000E+00   0.0000000000E+00   0.0000000000E+00   0.0000000000E+00   0.0000000000E+00   0.9988341482E+00   0.2538654856E-09   0.2538654106E-09  -0.9542804310E-17   0.6489597791E-16   0.5075653808E-17
   0.0000000000E+00   0.0000000000E+00   0.9951664724E+00   0.0000000000E+00   0.0000000000E+00  -0.4833527642E-02   0.0000000000E+00   0.0000000000E+00   0.0000000000E+00   0.0000000000E+00   0.0000000000E+00   0.0000000000E+00   0.0000000000E+00   0.0000000000E+00   0.0000000000E+00   0.9988341482E+00   0.2538604473E-09   0.2538604760E-09   0.4281576106E-17  -0.5591566445E-16   0.6236123001E-16
   0.1010000000E+01   0.0000000000E+00   0.9951664724E+00   0.1000000000E-01   0.0000000000E+00  -0.4833527642E-02   0.0000000000E+00   0.0000000000E+00   0.0000000000E+00   0.0000000000E+00   0.0000000000E+00   0.0000000000E+00   0.0000000000E+00   0.0000000000E+00   0.0000000000E+00   0.9988341482E+00   0.2538596669E-09   0.2538596231E-09  -0.6523817282E-16   0.1090306771E-15   0.6217307793E-16
   0.1010000000E+01   0.9951664724E+00   0.9951664724E+00   0.1000000000E-01  -0.4833527642E-02  -0.4833527642E-02   0.0000000000E+00   0.0000000000E+00   0.0000000000E+00   0.0000000000E+00   0.0000000000E+00   0.0000000000E+00   0.0000000000E+00   0.0000000000E+00   0.0000000000E+00   0.9988341481E+00   0.2538583659E-09   0.2538584097E-09  -0.7645392353E-16  -0.1335104034E-15  -0.1232415083E-16
   0.0000000000E+00   0.9951664724E+00   0.9951664724E+00   0.0000000000E+00  -0.4833527642E-02  -0.4833527642E-02   0.0000000000E+00   0.0000000000E+00   0.0000000000E+00   0.0000000000E+00   0.0000000000E+00   0.0000000000E+00   0.0000000000E+00   0.0000000000E+00   0.0000000000E+00   0.9988341481E+00   0.2538599244E-09   0.2538599413E-09  -0.6477456099E-17   0.4134300817E-16  -0.9262144858E-18
   0.2020000000E+01   0.0000000000E+00  -0.1360884927E-17   0.2000000000E-01   0.0000000000E+00  -0.1360884927E-17   0.0000000000E+00   0.0000000000E+00   0.0000000000E+00   0.0000000000E+00   0.0000000000E+00   0.0000000000E+00   0.0000000000E+00   0.0000000000E+00   0.0000000000E+00   0.9988341483E+00   0.2538620379E-09   0.2538621888E-09  -0.1329161150E-16   0.3073694433E-16  -0.4913554741E-16
   0.2020000000E+01   0.9951664724E+00  -0.1464215854E-17   0.2000000000E-01  -0.4833527642E-02  -0.1464215854E-17   0.0000000000E+00   0.0000000000E+00   0.0000000000E+00   0.0000000000E+00   0.0000000000E+00   0.0000000000E+00   0.0000000000E+00   0.0000000000E+00   0.0000000000E+00   0.9988341482E+00   0.2538599588E-09   0.2538599461E-09  -0.8141782552E-16   0.3005654083E-17   0.6129816579E-16
   0.2020000000E+01   0.0000000000E+00   0.9951664724E+00   0.2000000000E-01   0.0000000000E+00  -0.4833527642E-02   0.0000000000E+00   0.0000000000E+00   0.0000000000E+00   0.0000000000E+00   0.0000000000E+00   0.0000000000E+00   0.0000000000E+00   0.0000000000E+00   0.0000000000E+00   0.9988341482E+00   0.2538635779E-09   0.2538637010E-09   0.4914609620E-16   0.1212924449E-15   0.1405620469E-16
   0.2020000000E+01   0.9951664724E+00   0.9951664724E+00   0.2000000000E-01  -0.4833527642E-02  -0.4833527642E-02   0.0000000000E+00   0.0000000000E+00   0.0000000000E+00   0.0000000000E+00   0.0000000000E+00   0.0000000000E+00   0.0000000000E+00   0.0000000000E+00   0.0000000000E+00   0.9988341481E+00   0.2538562945E-09   0.2538562541E-09   0.2960089035E-16   0.5321294656E-16  -0.6392195979E-16
     1     2     3     4     5     6     7     8
     2     9    10     3     6    11    12     7
 VARIABLES = X,Y,Z,DU1,DU2,DU3,U1,U2,U3,e11,e22,e33,e12,e13,e23,S11,S22,S33,S12,S13,S23
 ZONE, T="0.1000D+00" F=FEPOINT, I=   12 J=    2 ET=BRICK
   0.0000000000E+00   0.0000000000E+00   0.0000000000E+00   0.0000000000E+00   0.0000000000E+00   0.0000000000E+00   0.0000000000E+00   0.0000000000E+00   0.0000000000E+00   0.0000000000E+00   0.0000000000E+00   0.0000000000E+00   0.0000000000E+00   0.0000000000E+00   0.0000000000E+00   0.1071134398E+01   0.4336619747E-06   0.4336619747E-06   0.1050366591E-16  -0.1210043424E-16  -0.4769710329E-17
   0.1020000000E+01   0.0000000000E+00   0.8521232229E-18   0.1000000000E-01   0.0000000000E+00   0.2011344156E-17   0.1000000000E-01   0.0000000000E+00  -0.1159220934E-17   0.0000000000E+00   0.0000000000E+00   0.0000000000E+00   0.0000000000E+00   0.0000000000E+00   0.0000000000E+00   0.1071134398E+01   0.4336619689E-06   0.4336619690E-06   0.7578953434E-16   0.2205563206E-15  -0.5434373526E-16
   0.1020000000E+01   0.9901785225E+00  -0.1105642163E-17   0.1000000000E-01  -0.4987949814E-02  -0.9134193770E-18   0.1000000000E-01  -0.4833527642E-02  -0.1922227860E-18   0.0000000000E+00   0.0000000000E+00   0.0000000000E+00   0.0000000000E+00   0.0000000000E+00   0.0000000000E+00   0.1071134398E+01   0.4336619720E-06   0.4336619722E-06   0.1125176704E-15  -0.1960534067E-15   0.8914080911E-16
   0.0000000000E+00   0.9901785225E+00  -0.1087125584E-17   0.0000000000E+00  -0.4987949814E-02  -0.7515640989E-18   0.0000000000E+00  -0.4833527642E-02  -0.3355614847E-18   0.0000000000E+00   0.0000000000E+00   0.0000000000E+00   0.0000000000E+00   0.0000000000E+00   0.0000000000E+00   0.1071134398E+01   0.4336619696E-06   0.4336619695E-06  -0.4246680172E-16   0.6833847997E-16   0.2562992774E-16
   0.0000000000E+00   0.0000000000E+00   0.9901785225E+00   0.0000000000E+00   0.0000000000E+00  -0.4987949814E-02   0.0000000000E+00   0.0000000000E+00  -0.4833527642E-02   0.0000000000E+00   0.0000000000E+00   0.0000000000E+00   0.0000000000E+00   0.0000000000E+00   0.0000000000E+00   0.1071134398E+01   0.4336619768E-06   0.4336619767E-06   0.9236054088E-17   0.5207960649E-16  -0.4648877723E-16
   0.1020000000E+01   0.0000000000E+00   0.9901785225E+00   0.1000000000E-01   0.0000000000E+00  -0.4987949814E-02   0.1000000000E-01   0.0000000000E+00  -0.4833527642E-02   0.0000000000E+00   0.0000000000E+00   0.0000000000E+00   0.0000000000E+00   0.0000000000E+00   0.0000000000E+00   0.1071134398E+01   0.4336619755E-06   0.4336619754E-06  -0.1386826149E-15   0.1313270692E-15  -0.1239509653E-16
   0.1020000000E+01   0.9901785225E+00   0.9901785225E+00   0.1000000000E-01  -0.4987949814E-02  -0.4987949814E-02   0.1000000000E-01  -0.4833527642E-02  -0.4833527642E-02   0.0000000000E+00   0.0000000000E+00   0.0000000000E+00   0.0000000000E+00   0.0000000000E+00   0.0000000000E+00   0.1071134397E+01   0.4336619786E-06   0.4336619786E-06  -0.1120064084E-15  -0.1071862437E-15  -0.5215216762E-17
   0.0000000000E+00   0.9901785225E+00   0.9901785225E+00   0.0000000000E+00  -0.4987949814E-02  -0.4987949814E-02   0.0000000000E+00  -0.4833527642E-02  -0.4833527642E-02   0.0000000000E+00   0.0000000000E+00   0.0000000000E+00   0.0000000000E+00   0.0000000000E+00   0.0000000000E+00   0.1071134398E+01   0.4336619717E-06   0.4336619715E-06   0.2531385405E-16   0.4089433051E-16   0.2653658593E-16
   0.2040000000E+01   0.0000000000E+00  -0.1360553609E-17   0.2000000000E-01   0.0000000000E+00   0.3313181372E-21   0.2000000000E-01   0.0000000000E+00  -0.1360884927E-17   0.0000000000E+00   0.0000000000E+00   0.0000000000E+00   0.0000000000E+00   0.0000000000E+00   0.0000000000E+00   0.1071134398E+01   0.4336619736E-06   0.4336619738E-06  -0.3458413502E-17   0.1972400260E-16  -0.5782457728E-16
   0.2040000000E+01   0.9901785225E+00  -0.3221696187E-17   0.2000000000E-01  -0.4987949814E-02  -0.1757480333E-17   0.2000000000E-01  -0.4833527642E-02  -0.1464215854E-17   0.0000000000E+00   0.0000000000E+00   0.0000000000E+00   0.0000000000E+00   0.0000000000E+00   0.0000000000E+00   0.1071134398E+01   0.4336619694E-06   0.4336619695E-06   0.3286332223E-17   0.3201276397E-16   0.7363060724E-16
   0.2040000000E+01   0.0000000000E+00   0.9901785225E+00   0.2000000000E-01   0.0000000000E+00  -0.4987949814E-02   0.2000000000E-01   0.0000000000E+00  -0.4833527642E-02   0.0000000000E+00   0.0000000000E+00   0.0000000000E+00   0.0000000000E+00   0.0000000000E+00   0.0000000000E+00   0.1071134398E+01   0.4336619794E-06   0.4336619794E-06   0.3916315797E-16  -0.9723765379E-16   0.1814422045E-16
   0.2040000000E+01   0.9901785225E+00   0.9901785225E+00   0.2000000000E-01  -0.4987949814E-02  -0.4987949814E-02   0.2000000000E-01  -0.4833527642E-02  -0.4833527642E-02   0.0000000000E+00   0.0000000000E+00   0.0000000000E+00   0.0000000000E+00   0.0000000000E+00   0.0000000000E+00   0.1071134397E+01   0.4336619752E-06   0.4336619750E-06   0.4814287376E-17   0.2035162234E-15   0.6706871705E-16
     1     2     3     4     5     6     7     8
     2     9    10     3     6    11    12     7
 VARIABLES = X,Y,Z,DU1,DU2,DU3,U1,U2,U3,e11,e22,e33,e12,e13,e23,S11,S22,S33,S12,S13,S23
 ZONE, T="0.1500D+00" F=FEPOINT, I=   12 J=    2 ET=BRICK
   0.0000000000E+00   0.0000000000E+00   0.0000000000E+00   0.0000000000E+00   0.0000000000E+00   0.0000000000E+00   0.0000000000E+00   0.0000000000E+00   0.0000000000E+00   0.0000000000E+00   0.0000000000E+00   0.0000000000E+00   0.0000000000E+00   0.0000000000E+00   0.0000000000E+00   0.1115661125E+01   0.1785989882E-09   0.1785989076E-09  -0.8809756450E-17   0.3083413429E-16   0.8709881314E-18
   0.1030000000E+01   0.0000000000E+00   0.2893899664E-17   0.1000000000E-01   0.0000000000E+00   0.2041776441E-17   0.2000000000E-01   0.0000000000E+00   0.8521232229E-18   0.0000000000E+00   0.0000000000E+00   0.0000000000E+00   0.0000000000E+00   0.0000000000E+00   0.0000000000E+00   0.1115661125E+01   0.1785957116E-09   0.1785956958E-09   0.5873865468E-16   0.4726670040E-16  -0.3048291955E-16
   0.1030000000E+01   0.9851859435E+00   0.3723919992E-18   0.1000000000E-01  -0.4992579023E-02   0.1478034162E-17   0.2000000000E-01  -0.9821477456E-02  -0.1105642163E-17   0.0000000000E+00   0.0000000000E+00   0.0000000000E+00   0.0000000000E+00   0.0000000000E+00   0.0000000000E+00   0.1115661125E+01   0.1785957439E-09   0.1785957008E-09   0.1688375592E-16  -0.6266539278E-16   0.3022543551E-17
   0.0000000000E+00   0.9851859435E+00   0.2662384128E-17   0.0000000000E+00  -0.4992579023E-02   0.3749509712E-17   0.0000000000E+00  -0.9821477456E-02  -0.1087125584E-17   0.0000000000E+00   0.0000000000E+00   0.0000000000E+00   0.0000000000E+00   0.0000000000E+00   0.0000000000E+00   0.1115661125E+01   0.1785989720E-09   0.1785989051E-09  -0.5466401022E-16   0.3794908507E-17  -0.4545309778E-16
   0.0000000000E+00   0.0000000000E+00   0.9851859435E+00   0.0000000000E+00   0.0000000000E+00  -0.4992579023E-02   0.0000000000E+00   0.0000000000E+00  -0.9821477456E-02   0.0000000000E+00   0.0000000000E+00   0.0000000000E+00   0.0000000000E+00   0.0000000000E+00   0.0000000000E+00   0.1115661125E+01   0.1785855657E-09   0.1785855786E-09   0.8694162178E-17   0.5413966728E-17   0.2901144930E-16
   0.1030000000E+01   0.0000000000E+00   0.9851859435E+00   0.1000000000E-01   0.0000000000E+00  -0.4992579023E-02   0.2000000000E-01   0.0000000000E+00  -0.9821477456E-02   0.0000000000E+00   0.0000000000E+00   0.0000000000E+00   0.0000000000E+00   0.0000000000E+00   0.0000000000E+00   0.1115661125E+01   0.1785952903E-09   0.1785953119E-09  -0.1975023671E-18  -0.9221193846E-17  -0.7871289923E-17
   0.1030000000E+01   0.9851859435E+00   0.9851859435E+00   0.1000000000E-01  -0.4992579023E-02  -0.4992579023E-02   0.2000000000E-01  -0.9821477456E-02  -0.9821477456E-02   0.0000000000E+00   0.0000000000E+00   0.0000000000E+00   0.0000000000E+00   0.0000000000E+00   0.0000000000E+00   0.1115661125E+01   0.1785900948E-09   0.1785900890E-09   0.5450525542E-16  -0.5802396380E-16   0.7945899921E-16
   0.0000000000E+00   0.9851859435E+00   0.9851859435E+00   0.0000000000E+00  -0.4992579023E-02  -0.4992579023E-02   0.0000000000E+00  -0.9821477456E-02  -0.9821477456E-02   0.0000000000E+00   0.0000000000E+00   0.0000000000E+00   0.0000000000E+00   0.0000000000E+00   0.0000000000E+00   0.1115661125E+01   0.1785881634E-09   0.1785881900E-09   0.5628311214E-16   0.2114961958E-16  -0.2719698821E-16
   0.2060000000E+01   0.0000000000E+00  -0.9555456823E-18   0.2000000000E-01   0.0000000000E+00   0.4050079265E-18   0.4000000000E-01   0.0000000000E+00  -0.1360553609E-17   0.0000000000E+00   0.0000000000E+00   0.0000000000E+00   0.0000000000E+00   0.0000000000E+00   0.0000000000E+00   0.1115661125E+01   0.1785873977E-09   0.1785873172E-09  -0.1807544602E-16  -0.2716763717E-16  -0.3022876147E-16
   0.2060000000E+01   0.9851859435E+00  -0.3904264986E-17   0.2000000000E-01  -0.4992579023E-02  -0.6825687991E-18   0.4000000000E-01  -0.9821477456E-02  -0.3221696187E-17   0.0000000000E+00   0.0000000000E+00   0.0000000000E+00   0.0000000000E+00   0.0000000000E+00   0.0000000000E+00   0.1115661125E+01   0.1785975805E-09   0.1785976905E-09   0.2388098657E-16   0.1884334315E-15  -0.1048018601E-15
   0.2060000000E+01   0.0000000000E+00   0.9851859435E+00   0.2000000000E-01   0.0000000000E+00  -0.4992579023E-02   0.4000000000E-01   0.0000000000E+00  -0.9821477456E-02   0.0000000000E+00   0.0000000000E+00   0.0000000000E+00   0.0000000000E+00   0.0000000000E+00   0.0000000000E+00   0.1115661125E+01   0.1785998007E-09   0.1785997014E-09   0.4377365542E-16  -0.1678531872E-15   0.7122345396E-16
   0.2060000000E+01   0.9851859435E+00   0.9851859435E+00   0.2000000000E-01  -0.4992579023E-02  -0.4992579023E-02   0.4000000000E-01  -0.9821477456E-02  -0.9821477456E-02   0.0000000000E+00   0.0000000000E+00   0.0000000000E+00   0.0000000000E+00   0.0000000000E+00   0.0000000000E+00   0.1115661125E+01   0.1785971381E-09   0.1785972295E-09  -0.3900153891E-16   0.1535289621E-15  -0.1204274264E-16
     1     2     3     4     5     6     7     8
     2     9    10     3     6    11    12     7
 VARIABLES = X,Y,Z,DU1,DU2,DU3,U1,U2,U3,e11,e22,e33,e12,e13,e23,S11,S22,S33,S12,S13,S23
 ZONE, T="0.2000D+00" F=FEPOINT, I=   12 J=    2 ET=BRICK
   0.0000000000E+00   0.0000000000E+00   0.0000000000E+00   0.0000000000E+00   0.0000000000E+00   0.0000000000E+00   0.0000000000E+00   0.0000000000E+00   0.0000000000E+00   0.0000000000E+00   0.0000000000E+00   0.0000000000E+00   0.0000000000E+00   0.0000000000E+00   0.0000000000E+00   0.1148331417E+01   0.1878453832E-10   0.1878454500E-10   0.1343299765E-16  -0.3540559410E-16  -0.1078986085E-15
   0.1040000000E+01   0.0000000000E+00  -0.3387127359E-17   0.1000000000E-01   0.0000000000E+00  -0.6281027023E-17   0.3000000000E-01   0.0000000000E+00   0.2893899664E-17   0.0000000000E+00   0.0000000000E+00   0.0000000000E+00   0.0000000000E+00   0.0000000000E+00   0.0000000000E+00   0.1148331417E+01   0.1879501864E-10   0.1879498980E-10  -0.1215022561E-15  -0.1244096795E-17  -0.4077988491E-16
   0.1040000000E+01   0.9801913886E+00  -0.7723098809E-17   0.1000000000E-01  -0.4994554951E-02  -0.8095490808E-17   0.3000000000E-01  -0.1481405648E-01   0.3723919992E-18   0.0000000000E+00   0.0000000000E+00   0.0000000000E+00   0.0000000000E+00   0.0000000000E+00   0.0000000000E+00   0.1148331417E+01   0.1880495927E-10   0.1880508233E-10  -0.4174239693E-16  -0.5391018845E-16  -0.2629430233E-16
   0.0000000000E+00   0.9801913886E+00  -0.1403851935E-16   0.0000000000E+00  -0.4994554951E-02  -0.1670090348E-16   0.0000000000E+00  -0.1481405648E-01   0.2662384128E-17   0.0000000000E+00   0.0000000000E+00   0.0000000000E+00   0.0000000000E+00   0.0000000000E+00   0.0000000000E+00   0.1148331417E+01   0.1880921216E-10   0.1880958889E-10   0.5430599102E-16   0.7601272856E-16  -0.9579580448E-16
   0.0000000000E+00   0.0000000000E+00   0.9801913886E+00   0.0000000000E+00   0.0000000000E+00  -0.4994554951E-02   0.0000000000E+00   0.0000000000E+00  -0.1481405648E-01   0.0000000000E+00   0.0000000000E+00   0.0000000000E+00   0.0000000000E+00   0.0000000000E+00   0.0000000000E+00   0.1148331417E+01   0.1880592001E-10   0.1880562493E-10  -0.2687793942E-17   0.5037828736E-17   0.2137016757E-16
   0.1040000000E+01   0.0000000000E+00   0.9801913886E+00   0.1000000000E-01   0.0000000000E+00  -0.4994554951E-02   0.3000000000E-01   0.0000000000E+00  -0.1481405648E-01   0.0000000000E+00   0.0000000000E+00   0.0000000000E+00   0.0000000000E+00   0.0000000000E+00   0.0000000000E+00   0.1148331417E+01   0.1879794448E-10   0.1879790018E-10  -0.1159045334E-15  -0.2347430621E-16   0.1732110589E-16
   0.1040000000E+01   0.9801913886E+00   0.9801913886E+00   0.1000000000E-01  -0.4994554951E-02  -0.4994554951E-02   0.3000000000E-01  -0.1481405648E-01  -0.1481405648E-01   0.0000000000E+00   0.0000000000E+00   0.0000000000E+00   0.0000000000E+00   0.0000000000E+00   0.0000000000E+00   0.1148331417E+01   0.1879764979E-10   0.1879775744E-10  -0.1022980938E-15   0.2299596636E-16   0.4113797769E-16
   0.0000000000E+00   0.9801913886E+00   0.9801913886E+00   0.0000000000E+00  -0.4994554951E-02  -0.4994554951E-02   0.0000000000E+00  -0.1481405648E-01  -0.1481405648E-01   0.0000000000E+00   0.0000000000E+00   0.0000000000E+00   0.0000000000E+00   0.0000000000E+00   0.0000000000E+00   0.1148331417E+01   0.1880454982E-10   0.1880462479E-10  -0.4640162079E-16  -0.5822521395E-16   0.1997556807E-15
   0.2080000000E+01   0.0000000000E+00  -0.3691820805E-17   0.2000000000E-01   0.0000000000E+00  -0.2736275123E-17   0.6000000000E-01   0.0000000000E+00  -0.9555456823E-18   0.0000000000E+00   0.0000000000E+00   0.0000000000E+00   0.0000000000E+00   0.0000000000E+00   0.0000000000E+00   0.1148331417E+01   0.1879862741E-10   0.1879860526E-10   0.2111297502E-17  -0.7513769910E-16  -0.6011573431E-16
   0.2080000000E+01   0.9801913886E+00  -0.9681650018E-17   0.2000000000E-01  -0.4994554951E-02  -0.5777385032E-17   0.6000000000E-01  -0.1481405648E-01  -0.3904264986E-17   0.0000000000E+00   0.0000000000E+00   0.0000000000E+00   0.0000000000E+00   0.0000000000E+00   0.0000000000E+00   0.1148331417E+01   0.1880458922E-10   0.1880470071E-10  -0.1907724190E-16   0.9247167317E-16   0.2737240585E-17
   0.2080000000E+01   0.0000000000E+00   0.9801913886E+00   0.2000000000E-01   0.0000000000E+00  -0.4994554951E-02   0.6000000000E-01   0.0000000000E+00  -0.1481405648E-01   0.0000000000E+00   0.0000000000E+00   0.0000000000E+00   0.0000000000E+00   0.0000000000E+00   0.0000000000E+00   0.1148331417E+01   0.1880445992E-10   0.1880430904E-10   0.1137048436E-16   0.5570234850E-16  -0.2017224881E-16
   0.2080000000E+01   0.9801913886E+00   0.9801913886E+00   0.2000000000E-01  -0.4994554951E-02  -0.4994554951E-02   0.6000000000E-01  -0.1481405648E-01  -0.1481405648E-01   0.0000000000E+00   0.0000000000E+00   0.0000000000E+00   0.0000000000E+00   0.0000000000E+00   0.0000000000E+00   0.1148331417E+01   0.1881530303E-10   0.1881528577E-10   0.1682687554E-16  -0.2569558114E-16   0.5055094432E-16
     1     2     3     4     5     6     7     8
     2     9    10     3     6    11    12     7
 VARIABLES = X,Y,Z,DU1,DU2,DU3,U1,U2,U3,e11,e22,e33,e12,e13,e23,S11,S22,S33,S12,S13,S23
 ZONE, T="0.2500D+00" F=FEPOINT, I=   12 J=    2 ET=BRICK
   0.0000000000E+00   0.0000000000E+00   0.0000000000E+00   0.0000000000E+00   0.0000000000E+00   0.0000000000E+00   0.0000000000E+00   0.0000000000E+00   0.0000000000E+00   0.0000000000E+00   0.0000000000E+00   0.0000000000E+00   0.0000000000E+00   0.0000000000E+00   0.0000000000E+00   0.1174312058E+01   0.3914992936E-11   0.3915009234E-11  -0.1678712118E-17  -0.1065197849E-15  -0.9526036445E-17
   0.1050000000E+01   0.0000000000E+00  -0.3180333078E-17   0.1000000000E-01   0.0000000000E+00   0.2067942807E-18   0.4000000000E-01   0.0000000000E+00  -0.3387127359E-17   0.0000000000E+00   0.0000000000E+00   0.0000000000E+00   0.0000000000E+00   0.0000000000E+00   0.0000000000E+00   0.1174312058E+01   0.3915826101E-11   0.3915758958E-11  -0.2370102948E-17   0.1034843271E-15   0.5631287424E-16
   0.1050000000E+01   0.9751957187E+00   0.3482741940E-17   0.1000000000E-01  -0.4995669893E-02   0.1120584075E-16   0.4000000000E-01  -0.1980861143E-01  -0.7723098809E-17   0.0000000000E+00   0.0000000000E+00   0.0000000000E+00   0.0000000000E+00   0.0000000000E+00   0.0000000000E+00   0.1174312058E+01   0.3911691896E-11   0.3911525824E-11   0.2081038456E-16  -0.1258062753E-15   0.1329625067E-16
   0.0000000000E+00   0.9751957187E+00  -0.1851631661E-18   0.0000000000E+00  -0.4995669893E-02   0.1385335619E-16   0.0000000000E+00  -0.1980861143E-01  -0.1403851935E-16   0.0000000000E+00   0.0000000000E+00   0.0000000000E+00   0.0000000000E+00   0.0000000000E+00   0.0000000000E+00   0.1174312058E+01   0.3915144232E-11   0.3915180101E-11  -0.2084520470E-16   0.9586775922E-16   0.7766858469E-18
   0.0000000000E+00   0.0000000000E+00   0.9751957187E+00   0.0000000000E+00   0.0000000000E+00  -0.4995669893E-02   0.0000000000E+00   0.0000000000E+00  -0.1980861143E-01   0.0000000000E+00   0.0000000000E+00   0.0000000000E+00   0.0000000000E+00   0.0000000000E+00   0.0000000000E+00   0.1174312058E+01   0.3911082846E-11   0.3911096808E-11  -0.1380755561E-16   0.5740814751E-16   0.6088413235E-17
   0.1050000000E+01   0.0000000000E+00   0.9751957187E+00   0.1000000000E-01   0.0000000000E+00  -0.4995669893E-02   0.4000000000E-01   0.0000000000E+00  -0.1980861143E-01   0.0000000000E+00   0.0000000000E+00   0.0000000000E+00   0.0000000000E+00   0.0000000000E+00   0.0000000000E+00   0.1174312058E+01   0.3919754842E-11   0.3919752206E-11   0.6303627479E-16  -0.7790502963E-16  -0.1007076035E-16
   0.1050000000E+01   0.9751957187E+00   0.9751957187E+00   0.1000000000E-01  -0.4995669893E-02  -0.4995669893E-02   0.4000000000E-01  -0.1980861143E-01  -0.1980861143E-01   0.0000000000E+00   0.0000000000E+00   0.0000000000E+00   0.0000000000E+00   0.0000000000E+00   0.0000000000E+00   0.1174312058E+01   0.3905435022E-11   0.3905333348E-11   0.2690310519E-16  -0.1131406183E-16   0.3758159919E-17
   0.0000000000E+00   0.9751957187E+00   0.9751957187E+00   0.0000000000E+00  -0.4995669893E-02  -0.4995669893E-02   0.0000000000E+00  -0.1980861143E-01  -0.1980861143E-01   0.0000000000E+00   0.0000000000E+00   0.0000000000E+00   0.0000000000E+00   0.0000000000E+00   0.0000000000E+00   0.1174312058E+01   0.3916378757E-11   0.3916412321E-11   0.1115412062E-16  -0.8949317476E-17  -0.2012342056E-16
   0.2100000000E+01   0.0000000000E+00  -0.4452999637E-17   0.2000000000E-01   0.0000000000E+00  -0.7611788323E-18   0.8000000000E-01   0.0000000000E+00  -0.3691820805E-17   0.0000000000E+00   0.0000000000E+00   0.0000000000E+00   0.0000000000E+00   0.0000000000E+00   0.0000000000E+00   0.1174312058E+01   0.3895641176E-11   0.3895610304E-11   0.1143166375E-16  -0.5483466418E-16  -0.6404877361E-16
   0.2100000000E+01   0.9751957187E+00  -0.1190991562E-16   0.2000000000E-01  -0.4995669893E-02  -0.2228265605E-17   0.8000000000E-01  -0.1980861143E-01  -0.9681650018E-17   0.0000000000E+00   0.0000000000E+00   0.0000000000E+00   0.0000000000E+00   0.0000000000E+00   0.0000000000E+00   0.1174312058E+01   0.3918342980E-11   0.3918584789E-11  -0.3751667928E-16   0.1341420500E-15  -0.2499276972E-16
   0.2100000000E+01   0.0000000000E+00   0.9751957187E+00   0.2000000000E-01   0.0000000000E+00  -0.4995669893E-02   0.8000000000E-01   0.0000000000E+00  -0.1980861143E-01   0.0000000000E+00   0.0000000000E+00   0.0000000000E+00   0.0000000000E+00   0.0000000000E+00   0.0000000000E+00   0.1174312058E+01   0.3918040467E-11   0.3917977361E-11   0.1692004377E-16  -0.1753692830E-16  -0.3639711392E-17
   0.2100000000E+01   0.9751957187E+00   0.9751957187E+00   0.2000000000E-01  -0.4995669893E-02  -0.4995669893E-02   0.8000000000E-01  -0.1980861143E-01  -0.1980861143E-01   0.0000000000E+00   0.0000000000E+00   0.0000000000E+00   0.0000000000E+00   0.0000000000E+00   0.0000000000E+00   0.1174312058E+01   0.3914943193E-11   0.3915152798E-11   0.5395394057E-16   0.9669409728E-16   0.1003270839E-17
     1     2     3     4     5     6     7     8
     2     9    10     3     6    11    12     7
 VARIABLES = X,Y,Z,DU1,DU2,DU3,U1,U2,U3,e11,e22,e33,e12,e13,e23,S11,S22,S33,S12,S13,S23
 ZONE, T="0.3000D+00" F=FEPOINT, I=   12 J=    2 ET=BRICK
   0.0000000000E+00   0.0000000000E+00   0.0000000000E+00   0.0000000000E+00   0.0000000000E+00   0.0000000000E+00   0.0000000000E+00   0.0000000000E+00   0.0000000000E+00   0.0000000000E+00   0.0000000000E+00   0.0000000000E+00   0.0000000000E+00   0.0000000000E+00   0.0000000000E+00   0.1195966001E+01   0.1153591107E-11   0.1153575322E-11  -0.2904519569E-16   0.3957824758E-16  -0.2072852851E-17
   0.1060000000E+01   0.0000000000E+00   0.8851801331E-17   0.1000000000E-01   0.0000000000E+00   0.1203213441E-16   0.5000000000E-01   0.0000000000E+00  -0.3180333078E-17   0.0000000000E+00   0.0000000000E+00   0.0000000000E+00   0.0000000000E+00   0.0000000000E+00   0.0000000000E+00   0.1195966001E+01   0.1150443518E-11   0.1150435067E-11   0.7304260389E-16   0.3904617274E-16  -0.6640187650E-16
   0.1060000000E+01   0.9701993277E+00   0.3287188283E-18   0.1000000000E-01  -0.4996391010E-02  -0.3154023112E-17   0.5000000000E-01  -0.2480428132E-01   0.3482741940E-17   0.0000000000E+00   0.0000000000E+00   0.0000000000E+00   0.0000000000E+00   0.0000000000E+00   0.0000000000E+00   0.1195966001E+01   0.1161556889E-11   0.1161668474E-11   0.2551322956E-16  -0.1693459349E-15  -0.1571215487E-16
   0.0000000000E+00   0.9701993277E+00  -0.2215869494E-17   0.0000000000E+00  -0.4996391010E-02  -0.2030706327E-17   0.0000000000E+00  -0.2480428132E-01  -0.1851631661E-18   0.0000000000E+00   0.0000000000E+00   0.0000000000E+00   0.0000000000E+00   0.0000000000E+00   0.0000000000E+00   0.1195966001E+01   0.1156918954E-11   0.1156963218E-11  -0.4021502485E-16   0.3020298359E-16  -0.8133503334E-16
   0.0000000000E+00   0.0000000000E+00   0.9701993277E+00   0.0000000000E+00   0.0000000000E+00  -0.4996391010E-02   0.0000000000E+00   0.0000000000E+00  -0.2480428132E-01   0.0000000000E+00   0.0000000000E+00   0.0000000000E+00   0.0000000000E+00   0.0000000000E+00   0.0000000000E+00   0.1195966001E+01   0.1151392285E-11   0.1151391153E-11  -0.2488170858E-16   0.6230993766E-16   0.2244354568E-16
   0.1060000000E+01   0.0000000000E+00   0.9701993277E+00   0.1000000000E-01   0.0000000000E+00  -0.4996391010E-02   0.5000000000E-01   0.0000000000E+00  -0.2480428132E-01   0.0000000000E+00   0.0000000000E+00   0.0000000000E+00   0.0000000000E+00   0.0000000000E+00   0.0000000000E+00   0.1195966001E+01   0.1158632305E-11   0.1158543801E-11  -0.9231136626E-17   0.5278469361E-16  -0.3299525878E-16
   0.1060000000E+01   0.9701993277E+00   0.9701993277E+00   0.1000000000E-01  -0.4996391010E-02  -0.4996391010E-02   0.5000000000E-01  -0.2480428132E-01  -0.2480428132E-01   0.0000000000E+00   0.0000000000E+00   0.0000000000E+00   0.0000000000E+00   0.0000000000E+00   0.0000000000E+00   0.1195966000E+01   0.1159432032E-11   0.1159463603E-11  -0.1691680615E-16  -0.1362528650E-15   0.6832404233E-16
   0.0000000000E+00   0.9701993277E+00   0.9701993277E+00   0.0000000000E+00  -0.4996391010E-02  -0.4996391010E-02   0.0000000000E+00  -0.2480428132E-01  -0.2480428132E-01   0.0000000000E+00   0.0000000000E+00   0.0000000000E+00   0.0000000000E+00   0.0000000000E+00   0.0000000000E+00   0.1195966001E+01   0.1159920901E-11   0.1159979799E-11   0.3914991384E-16   0.7707918360E-16   0.8381551469E-17
   0.2120000000E+01   0.0000000000E+00   0.1010361505E-16   0.2000000000E-01   0.0000000000E+00   0.1455661469E-16   0.1000000000E+00   0.0000000000E+00  -0.4452999637E-17   0.0000000000E+00   0.0000000000E+00   0.0000000000E+00   0.0000000000E+00   0.0000000000E+00   0.0000000000E+00   0.1195966001E+01   0.1147285205E-11   0.1147284089E-11   0.1615712963E-16   0.1102205184E-15   0.1631246330E-16
   0.2120000000E+01   0.9701993277E+00   0.7567176218E-17   0.2000000000E-01  -0.4996391010E-02   0.1947709184E-16   0.1000000000E+00  -0.2480428132E-01  -0.1190991562E-16   0.0000000000E+00   0.0000000000E+00   0.0000000000E+00   0.0000000000E+00   0.0000000000E+00   0.0000000000E+00   0.1195966001E+01   0.1166234847E-11   0.1166413753E-11  -0.4639893334E-16  -0.7750595212E-16   0.7981101489E-17
   0.2120000000E+01   0.0000000000E+00   0.9701993277E+00   0.2000000000E-01   0.0000000000E+00  -0.4996391010E-02   0.1000000000E+00   0.0000000000E+00  -0.2480428132E-01   0.0000000000E+00   0.0000000000E+00   0.0000000000E+00   0.0000000000E+00   0.0000000000E+00   0.0000000000E+00   0.1195966001E+01   0.1165912349E-11   0.1165736471E-11  -0.2725722873E-16   0.7595710402E-17   0.7184651866E-17