 VARIABLES = X,Y,DU1,DU2,U1,U2,S11,S22,S12
 ZONE, T="0.1000D+01" F=FEPOINT, I=    9 J=    8
  -0.1000000000E+00   0.5353182074E-01  -0.1000000000E+00   0.5353182074E-01   0.0000000000E+00   0.0000000000E+00   0.1098901101E+02   0.5746271419E-16   0.0000000000E+00
   0.2100000000E+01   0.5353182074E-01   0.1000000000E+00   0.5353182074E-01   0.0000000000E+00   0.0000000000E+00   0.1098901101E+02   0.3431228830E-14   0.0000000000E+00
   0.2100000000E+01   0.1967817535E+01   0.1000000000E+00  -0.3218246497E-01   0.0000000000E+00   0.0000000000E+00   0.1098901101E+02  -0.1281526970E-14   0.0000000000E+00
   0.1000000000E+01   0.5353182074E-01  -0.2219649838E-16   0.5353182074E-01   0.0000000000E+00   0.0000000000E+00   0.1098901101E+02   0.3785220846E-15   0.0000000000E+00
   0.2100000000E+01   0.1010674678E+01   0.1000000000E+00   0.1067467789E-01   0.0000000000E+00   0.0000000000E+00   0.1098901099E+02   0.4555004376E-15   0.0000000000E+00
   0.1000000000E+01   0.1010674678E+01  -0.9817958892E-17   0.1067467789E-01   0.0000000000E+00   0.0000000000E+00   0.1098901100E+02  -0.2298508608E-14   0.0000000000E+00
  -0.1000000000E+00   0.1967817535E+01  -0.1000000000E+00  -0.3218246497E-01   0.0000000000E+00   0.0000000000E+00   0.1098901101E+02   0.3345034754E-14   0.0000000000E+00
   0.1000000000E+01   0.1967817535E+01   0.9537485107E-17  -0.3218246497E-01   0.0000000000E+00   0.0000000000E+00   0.1098901100E+02  -0.1721848576E-14   0.0000000000E+00
  -0.1000000000E+00   0.1010674678E+01  -0.1000000000E+00   0.1067467789E-01   0.0000000000E+00   0.0000000000E+00   0.1098901100E+02  -0.3058805382E-15   0.0000000000E+00
           1           4           6           6
           4           2           5           5
           5           3           6           6
           4           5           6           6
           1           6           9           9
           6           3           8           8
           8           7           9           9
           6           8           9           9
 VARIABLES = X,Y,DU1,DU2,U1,U2,S11,S22,S12
 ZONE, T="0.2000D+01" F=FEPOINT, I=    9 J=    8
  -0.2000000000E+00   0.1070636415E+00  -0.1000000000E+00   0.5353182074E-01  -0.1000000000E+00   0.5353182074E-01   0.2197802202E+02   0.1926844104E-14   0.0000000000E+00
   0.2200000000E+01   0.1070636415E+00   0.1000000000E+00   0.5353182074E-01   0.1000000000E+00   0.5353182074E-01   0.2197802203E+02   0.5867702176E-15   0.0000000000E+00
   0.2200000000E+01   0.1935635070E+01   0.1000000000E+00  -0.3218246497E-01   0.1000000000E+00  -0.3218246497E-01   0.2197802202E+02   0.1696993242E-14   0.0000000000E+00
   0.1000000000E+01   0.1070636415E+00  -0.7653450688E-17   0.5353182074E-01  -0.2219649838E-16   0.5353182074E-01   0.2197802201E+02   0.1457926664E-14   0.0000000000E+00
   0.2200000000E+01   0.1021349356E+01   0.1000000000E+00   0.1067467789E-01   0.1000000000E+00   0.1067467789E-01   0.2197802199E+02   0.4501282162E-14   0.0000000000E+00
   0.1000000000E+01   0.1021349356E+01  -0.8821503570E-17   0.1067467789E-01  -0.9817958892E-17   0.1067467789E-01   0.2197802200E+02   0.2327782071E-15   0.0000000000E+00
  -0.2000000000E+00   0.1935635070E+01  -0.1000000000E+00  -0.3218246497E-01  -0.1000000000E+00  -0.3218246497E-01   0.2197802201E+02   0.7248108369E-14   0.0000000000E+00
   0.1000000000E+01   0.1935635070E+01   0.2721627873E-16  -0.3218246497E-01   0.9537485107E-17  -0.3218246497E-01   0.2197802200E+02  -0.2045130559E-14   0.0000000000E+00
  -0.2000000000E+00   0.1021349356E+01  -0.1000000000E+00   0.1067467789E-01  -0.1000000000E+00   0.1067467789E-01   0.2197802200E+02   0.1228075801E-14   0.0000000000E+00
           1           4           6           6
           4           2           5           5
           5           3           6           6
           4           5           6           6
           1           6           9           9
           6           3           8           8
           8           7           9           9
           6           8           9           9
 VARIABLES = X,Y,DU1,DU2,U1,U2,S11,S22,S12
 ZONE, T="0.3000D+01" F=FEPOINT, I=    9 J=    8
  -0.3000000000E+00   0.1605954622E+00  -0.1000000000E+00   0.5353182074E-01  -0.2000000000E+00   0.1070636415E+00   0.3296703303E+02  -0.1676610246E-14   0.0000000000E+00
   0.2300000000E+01   0.1605954622E+00   0.1000000000E+00   0.5353182074E-01   0.2000000000E+00   0.1070636415E+00   0.3296703304E+02   0.7549950258E-14   0.0000000000E+00
   0.2300000000E+01   0.1903452605E+01   0.1000000000E+00  -0.3218246497E-01   0.2000000000E+00  -0.6436492994E-01   0.3296703303E+02   0.7205173965E-14   0.0000000000E+00
   0.1000000000E+01   0.1605954622E+00  -0.3612858108E-16   0.5353182074E-01  -0.2984994907E-16   0.1070636415E+00   0.3296703302E+02  -0.2843211780E-14   0.0000000000E+00
   0.2300000000E+01   0.1032024034E+01   0.1000000000E+00   0.1067467789E-01   0.2000000000E+00   0.2134935577E-01   0.3296703298E+02   0.1252904031E-14   0.0000000000E+00
   0.1000000000E+01   0.1032024034E+01  -0.2124467408E-16   0.1067467789E-01  -0.1863946246E-16   0.2134935577E-01   0.3296703301E+02  -0.5663872143E-15   0.0000000000E+00
  -0.3000000000E+00   0.1903452605E+01  -0.1000000000E+00  -0.3218246497E-01  -0.2000000000E+00  -0.6436492994E-01   0.3296703302E+02   0.6860397672E-14   0.0000000000E+00
   0.1000000000E+01   0.1903452605E+01  -0.7911774289E-17  -0.3218246497E-01   0.3675376384E-16  -0.6436492994E-01   0.3296703299E+02   0.6496105740E-14   0.0000000000E+00
  -0.3000000000E+00   0.1032024034E+01  -0.1000000000E+00   0.1067467789E-01  -0.2000000000E+00   0.2134935577E-01   0.3296703299E+02   0.1710437350E-14   0.0000000000E+00
           1           4           6           6
           4           2           5           5
           5           3           6           6
           4           5           6           6
           1           6           9           9
           6           3           8           8
           8           7           9           9
           6           8           9           9
