 VARIABLES = X,Y,DU1,DU2,U1,U2
 ZONE, T="0.1000D+01" F=FEPOINT, I=   45 J=   32
   0.0000000000E+00   0.1000317203E+01   0.0000000000E+00   0.3172032715E-03   0.0000000000E+00   0.0000000000E+00               
   0.2027984587E+00   0.9802198901E+00   0.2798458705E-02   0.2198901277E-03   0.0000000000E+00   0.0000000000E+00                
   0.3394883425E+00   0.1719764166E+01  -0.5116575027E-03  -0.2358340145E-03   0.0000000000E+00   0.0000000000E+00 
   0.0000000000E+00   0.1749978699E+01   0.0000000000E+00  -0.2130066887E-04   0.0000000000E+00   0.0000000000E+00  
   0.3854905763E+00   0.9201271886E+00   0.5490576307E-02   0.1271886458E-03   0.0000000000E+00   0.0000000000E+00 
   0.6690844206E+00   0.1619743063E+01  -0.9155793638E-03  -0.2569368992E-03   0.0000000000E+00   0.0000000000E+00   
   0.5672041118E+00   0.8301102196E+00   0.7204111839E-02   0.1102196199E-03   0.0000000000E+00   0.0000000000E+00     
   0.9698365079E+00   0.1459873230E+01  -0.1634920974E-03  -0.1267704763E-03   0.0000000000E+00   0.0000000000E+00   
   0.7175828850E+00   0.7101377326E+00   0.7582885017E-02   0.1377325551E-03   0.0000000000E+00   0.0000000000E+00                
   0.1241755410E+01   0.1239997060E+01   0.1755409857E-02  -0.2940482593E-05   0.0000000000E+00   0.0000000000E+00                
   0.8377968578E+00   0.5600981049E+00   0.7796857765E-02   0.9810493992E-04   0.0000000000E+00   0.0000000000E+00                
   0.1463879144E+01   0.9699571972E+00   0.3879144057E-02  -0.4280277723E-04   0.0000000000E+00   0.0000000000E+00                
   0.9287244673E+00   0.3800039221E+00   0.8724467299E-02   0.3922118404E-05   0.0000000000E+00   0.0000000000E+00                
   0.1625751535E+01   0.6698893730E+00   0.5751535299E-02  -0.1106269634E-03   0.0000000000E+00   0.0000000000E+00                
   0.9900403982E+00   0.2000534959E+00   0.1004039825E-01   0.5349591126E-04   0.0000000000E+00   0.0000000000E+00                
   0.1728163107E+01   0.3400801607E+00   0.8163107380E-02   0.8016068212E-04   0.0000000000E+00   0.0000000000E+00                
   0.1011564537E+01   0.0000000000E+00   0.1156453714E-01   0.0000000000E+00   0.0000000000E+00   0.0000000000E+00                
   0.1760000389E+01   0.0000000000E+00   0.1000038884E-01   0.0000000000E+00   0.0000000000E+00   0.0000000000E+00                
   0.4905566684E+00   0.2449533083E+01   0.5566683656E-03  -0.4669174228E-03   0.0000000000E+00   0.0000000000E+00                
   0.0000000000E+00   0.2499685557E+01   0.0000000000E+00  -0.3144432641E-03   0.0000000000E+00   0.0000000000E+00                
   0.9608071613E+00   0.2309738008E+01   0.8071613328E-03  -0.2619922685E-03   0.0000000000E+00   0.0000000000E+00                
   0.1390476457E+01   0.2079983312E+01   0.4764568840E-03  -0.1668807505E-04   0.0000000000E+00   0.0000000000E+00                
   0.1770018752E+01   0.1770060974E+01   0.1875200791E-04   0.6097399751E-04   0.0000000000E+00   0.0000000000E+00                
   0.2080633982E+01   0.1389901231E+01   0.6339816490E-03  -0.9876923745E-04   0.0000000000E+00   0.0000000000E+00                
   0.2312947766E+01   0.9598566169E+00   0.2947766052E-02  -0.1433831107E-03   0.0000000000E+00   0.0000000000E+00                
   0.2456304626E+01   0.4902084042E+00   0.6304626012E-02   0.2084041551E-03   0.0000000000E+00   0.0000000000E+00                
   0.2508769620E+01   0.0000000000E+00   0.8769619703E-02   0.0000000000E+00   0.0000000000E+00   0.0000000000E+00                
   0.6300767270E+00   0.3189470655E+01   0.7672698689E-04  -0.5293449020E-03   0.0000000000E+00   0.0000000000E+00                
   0.0000000000E+00   0.3249258718E+01   0.0000000000E+00  -0.7412820958E-03   0.0000000000E+00   0.0000000000E+00                
   0.1240283607E+01   0.2999993132E+01   0.2836067292E-03  -0.6867972262E-05   0.0000000000E+00   0.0000000000E+00                
   0.1810495012E+01   0.2700252330E+01   0.4950123106E-03   0.2523298370E-03   0.0000000000E+00   0.0000000000E+00                
   0.2300377426E+01   0.2300132791E+01   0.3774256691E-03   0.1327907556E-03   0.0000000000E+00   0.0000000000E+00                
   0.2699848041E+01   0.1809782023E+01  -0.1519586927E-03  -0.2179769701E-03   0.0000000000E+00   0.0000000000E+00                
   0.3000717082E+01   0.1239796154E+01   0.7170816975E-03  -0.2038461679E-03   0.0000000000E+00   0.0000000000E+00                
   0.3194603016E+01   0.6303710070E+00   0.4603016473E-02   0.3710069741E-03   0.0000000000E+00   0.0000000000E+00                
   0.3257294421E+01   0.0000000000E+00   0.7294420941E-02   0.0000000000E+00   0.0000000000E+00   0.0000000000E+00                
   0.7799479511E+00   0.3919617368E+01  -0.5204889749E-04  -0.3826321813E-03   0.0000000000E+00   0.0000000000E+00                
   0.0000000000E+00   0.3998607307E+01   0.0000000000E+00  -0.1392693498E-02   0.0000000000E+00   0.0000000000E+00                
   0.1530002404E+01   0.3700422830E+01   0.2403786751E-05   0.4228302108E-03   0.0000000000E+00   0.0000000000E+00                
   0.2219711616E+01   0.3330484833E+01  -0.2883838093E-03   0.4848331375E-03   0.0000000000E+00   0.0000000000E+00                
   0.2829744416E+01   0.2830080165E+01  -0.2555842889E-03   0.8016469729E-04   0.0000000000E+00   0.0000000000E+00                
   0.3329976794E+01   0.2219647237E+01  -0.2320641889E-04  -0.3527626429E-03   0.0000000000E+00   0.0000000000E+00                
   0.3700173558E+01   0.1529891065E+01   0.1735580820E-03  -0.1089352387E-03   0.0000000000E+00   0.0000000000E+00                
   0.3922394275E+01   0.7806871464E+00   0.2394275103E-02   0.6871464163E-03   0.0000000000E+00   0.0000000000E+00                
   0.4006115366E+01   0.0000000000E+00   0.6115366451E-02   0.0000000000E+00   0.0000000000E+00   0.0000000000E+00                
           1           2           3           4
           2           5           6           3
           5           7           8           6
           7           9          10           8
           9          11          12          10
          11          13          14          12
          13          15          16          14
          15          17          18          16
           4           3          19          20
           3           6          21          19
           6           8          22          21
           8          10          23          22
          10          12          24          23
          12          14          25          24
          14          16          26          25
          16          18          27          26
          20          19          28          29
          19          21          30          28
          21          22          31          30
          22          23          32          31
          23          24          33          32
          24          25          34          33
          25          26          35          34
          26          27          36          35
          29          28          37          38
          28          30          39          37
          30          31          40          39
          31          32          41          40
          32          33          42          41
          33          34          43          42
          34          35          44          43
          35          36          45          44
