 VARIABLES = X,Y,DU1,DU2,U1,U2,S11,S22,S12
 ZONE, T="0.1000D+01" F=FEPOINT, I=    9 J=    8
   0.0000000000E+00   0.0000000000E+00   0.0000000000E+00   0.0000000000E+00   0.0000000000E+00   0.0000000000E+00   0.5779879309E+01   0.1299697096E+01   0.0000000000E+00
   0.2100000000E+01   0.9725973363E-01   0.1000000000E+00   0.9725973363E-01   0.0000000000E+00   0.0000000000E+00   0.5494505507E+01   0.3204732528E-01   0.0000000000E+00
   0.2100000000E+01   0.2052283805E+01   0.1000000000E+00   0.5228380474E-01   0.0000000000E+00   0.0000000000E+00   0.5752410173E+01  -0.1235602444E+01   0.0000000000E+00
   0.1050000000E+01  -0.2436370289E+00   0.5000000000E-01  -0.2436370289E+00   0.0000000000E+00   0.0000000000E+00   0.5423162052E+01  -0.3249242738E+00   0.0000000000E+00
   0.2100000000E+01   0.1075301466E+01   0.1000000000E+00   0.7530146570E-01   0.0000000000E+00   0.0000000000E+00   0.5837488184E+01   0.3089006110E+00   0.0000000000E+00
   0.1047528083E+01   0.7344047031E+00   0.4752808295E-01  -0.2655952969E+00   0.0000000000E+00   0.0000000000E+00   0.5766144737E+01   0.3204732561E-01   0.0000000000E+00
   0.0000000000E+00   0.2000000000E+01   0.0000000000E+00   0.0000000000E+00   0.0000000000E+00   0.0000000000E+00   0.5467036367E+01   0.2310968258E+01   0.0000000000E+00
   0.1045306135E+01   0.1712500000E+01   0.4530613505E-01  -0.2875000000E+00   0.0000000000E+00   0.0000000000E+00   0.5395692912E+01  -0.3729952613E+00   0.0000000000E+00
   0.0000000000E+00   0.1000000000E+01   0.0000000000E+00   0.0000000000E+00   0.0000000000E+00   0.0000000000E+00   0.5837488186E+01   0.2796129160E+01   0.0000000000E+00
           1           4           6           6
           4           2           5           5
           5           3           6           6
           4           5           6           6
           1           6           9           9
           6           3           8           8
           8           7           9           9
           6           8           9           9
 VARIABLES = X,Y,DU1,DU2,U1,U2,S11,S22,S12
 ZONE, T="0.2000D+01" F=FEPOINT, I=    9 J=    8
   0.0000000000E+00   0.0000000000E+00   0.0000000000E+00   0.0000000000E+00   0.0000000000E+00   0.0000000000E+00   0.1155975862E+02   0.2599394191E+01   0.0000000000E+00
   0.2200000000E+01   0.1945194673E+00   0.1000000000E+00   0.9725973363E-01   0.1000000000E+00   0.9725973363E-01   0.1098901101E+02   0.6409465056E-01   0.0000000000E+00
   0.2200000000E+01   0.2104567609E+01   0.1000000000E+00   0.5228380474E-01   0.1000000000E+00   0.5228380474E-01   0.1150482035E+02  -0.2471204888E+01   0.0000000000E+00
   0.1100000000E+01  -0.4872740579E+00   0.5000000000E-01  -0.2436370289E+00   0.5000000000E-01  -0.2436370289E+00   0.1084632410E+02  -0.6498485476E+00   0.0000000000E+00
   0.2200000000E+01   0.1150602931E+01   0.1000000000E+00   0.7530146570E-01   0.1000000000E+00   0.7530146570E-01   0.1167497637E+02   0.6178012219E+00   0.0000000000E+00
   0.1095056166E+01   0.4688094062E+00   0.4752808295E-01  -0.2655952969E+00   0.4752808295E-01  -0.2655952969E+00   0.1153228947E+02   0.6409465123E-01   0.0000000000E+00
   0.0000000000E+00   0.2000000000E+01   0.0000000000E+00   0.0000000000E+00   0.0000000000E+00   0.0000000000E+00   0.1093407273E+02   0.4621936517E+01   0.0000000000E+00
   0.1090612270E+01   0.1425000000E+01   0.4530613505E-01  -0.2875000000E+00   0.4530613505E-01  -0.2875000000E+00   0.1079138582E+02  -0.7459905226E+00   0.0000000000E+00
   0.0000000000E+00   0.1000000000E+01   0.0000000000E+00   0.0000000000E+00   0.0000000000E+00   0.0000000000E+00   0.1167497637E+02   0.5592258319E+01   0.0000000000E+00
           1           4           6           6
           4           2           5           5
           5           3           6           6
           4           5           6           6
           1           6           9           9
           6           3           8           8
           8           7           9           9
           6           8           9           9
 VARIABLES = X,Y,DU1,DU2,U1,U2,S11,S22,S12
 ZONE, T="0.3000D+01" F=FEPOINT, I=    9 J=    8
   0.0000000000E+00   0.0000000000E+00   0.0000000000E+00   0.0000000000E+00   0.0000000000E+00   0.0000000000E+00   0.1733963793E+02   0.3899091287E+01   0.0000000000E+00
   0.2300000000E+01   0.2917792009E+00   0.1000000000E+00   0.9725973363E-01   0.2000000000E+00   0.1945194673E+00   0.1648351652E+02   0.9614197584E-01   0.0000000000E+00
   0.2300000000E+01   0.2156851414E+01   0.1000000000E+00   0.5228380474E-01   0.2000000000E+00   0.1045676095E+00   0.1725723052E+02  -0.3706807332E+01   0.0000000000E+00
   0.1150000000E+01  -0.7309110868E+00   0.5000000000E-01  -0.2436370289E+00   0.1000000000E+00  -0.4872740579E+00   0.1626948616E+02  -0.9747728214E+00   0.0000000000E+00
   0.2300000000E+01   0.1225904397E+01   0.1000000000E+00   0.7530146570E-01   0.2000000000E+00   0.1506029314E+00   0.1751246455E+02   0.9267018329E+00   0.0000000000E+00
   0.1142584249E+01   0.2032141094E+00   0.4752808295E-01  -0.2655952969E+00   0.9505616591E-01  -0.5311905938E+00   0.1729843421E+02   0.9614197684E-01   0.0000000000E+00
   0.0000000000E+00   0.2000000000E+01   0.0000000000E+00   0.0000000000E+00   0.0000000000E+00   0.0000000000E+00   0.1640110910E+02   0.6932904775E+01   0.0000000000E+00
   0.1135918405E+01   0.1137500000E+01   0.4530613505E-01  -0.2875000000E+00   0.9061227009E-01  -0.5750000000E+00   0.1618707874E+02  -0.1118985784E+01   0.0000000000E+00
   0.0000000000E+00   0.1000000000E+01   0.0000000000E+00   0.0000000000E+00   0.0000000000E+00   0.0000000000E+00   0.1751246456E+02   0.8388387479E+01   0.0000000000E+00
           1           4           6           6
           4           2           5           5
           5           3           6           6
           4           5           6           6
           1           6           9           9
           6           3           8           8
           8           7           9           9
           6           8           9           9
