 VARIABLES = X,Y,Z,DU1,DU2,DU3,U1,U2,U3,S11,S22,S33,S12,S13,S23,Vf
 ZONE, T="0.1000D+00" F=FEPOINT, I=   12 J=    2 ET=BRICK
   0.0000000000E+00  -0.1836309722E-03  -0.2041373890E-03   0.0000000000E+00  -0.6004977256E-04  -0.7105997658E-04   0.0000000000E+00  -0.1235811996E-03  -0.1330774124E-03   0.0000000000E+00   0.0000000000E+00   0.0000000000E+00   0.0000000000E+00   0.0000000000E+00   0.0000000000E+00   0.0000000000E+00
   0.1001078836E+01   0.9247604679E-03   0.1267067473E-02   0.5000312768E-03   0.4500687279E-03   0.6262752787E-03   0.5788051483E-03   0.4746917400E-03   0.6407921941E-03   0.0000000000E+00   0.0000000000E+00   0.0000000000E+00   0.0000000000E+00   0.0000000000E+00   0.0000000000E+00   0.0000000000E+00
   0.1000232563E+01   0.1000759431E+01   0.4158435581E-03   0.7004053358E-04   0.4022320323E-03   0.1936864948E-03   0.1625229096E-03   0.3571990166E-03   0.2221570633E-03   0.0000000000E+00   0.0000000000E+00   0.0000000000E+00   0.0000000000E+00   0.0000000000E+00   0.0000000000E+00   0.0000000000E+00
   0.0000000000E+00   0.1000215445E+01  -0.2242275338E-03   0.0000000000E+00   0.7936491077E-04  -0.8194859229E-04   0.0000000000E+00   0.1360803121E-03  -0.1422789415E-03   0.0000000000E+00   0.0000000000E+00   0.0000000000E+00   0.0000000000E+00   0.0000000000E+00   0.0000000000E+00   0.0000000000E+00
   0.0000000000E+00  -0.2009507352E-03   0.1000235909E+01   0.0000000000E+00  -0.6957852173E-04   0.9034778888E-04   0.0000000000E+00  -0.1313722134E-03   0.1455613837E-03   0.0000000000E+00   0.0000000000E+00   0.0000000000E+00   0.0000000000E+00   0.0000000000E+00   0.0000000000E+00   0.0000000000E+00
   0.1000233641E+01   0.7195189472E-04   0.1000417485E+01   0.7060586713E-04   0.1780508454E-04   0.2262348147E-03   0.1630352370E-03   0.5414681018E-04   0.1912498185E-03   0.0000000000E+00   0.0000000000E+00   0.0000000000E+00   0.0000000000E+00   0.0000000000E+00   0.0000000000E+00   0.0000000000E+00
   0.9993858772E+00   0.9999142607E+00   0.9995704804E+00  -0.3595701592E-03  -0.2724646603E-04  -0.2030388438E-03  -0.2545526879E-03  -0.5849282656E-04  -0.2264807856E-03   0.0000000000E+00   0.0000000000E+00   0.0000000000E+00   0.0000000000E+00   0.0000000000E+00   0.0000000000E+00   0.0000000000E+00
   0.0000000000E+00   0.1000199910E+01   0.1000223207E+01   0.0000000000E+00   0.6959705737E-04   0.8197719550E-04   0.0000000000E+00   0.1303131834E-03   0.1412294861E-03   0.0000000000E+00   0.0000000000E+00   0.0000000000E+00   0.0000000000E+00   0.0000000000E+00   0.0000000000E+00   0.0000000000E+00
   0.2001000000E+01   0.3641553658E-03   0.1068479323E-02   0.1000000000E-03   0.1156993901E-03   0.4784790706E-03   0.9000000000E-03   0.2484559757E-03   0.5900002527E-03   0.0000000000E+00   0.0000000000E+00   0.0000000000E+00   0.0000000000E+00   0.0000000000E+00   0.0000000000E+00   0.0000000000E+00
   0.2001000000E+01   0.9996350056E+00  -0.6192239075E-03   0.1000000000E-03  -0.1169675432E-03  -0.3744177541E-03   0.9000000000E-03  -0.2480268988E-03  -0.2448061534E-03   0.0000000000E+00   0.0000000000E+00   0.0000000000E+00   0.0000000000E+00   0.0000000000E+00   0.0000000000E+00   0.0000000000E+00
   0.2001000000E+01  -0.1328985326E-02   0.9989310038E+00   0.1000000000E-03  -0.7379300227E-03  -0.4795398576E-03   0.9000000000E-03  -0.5910553037E-03  -0.5894563578E-03   0.0000000000E+00   0.0000000000E+00   0.0000000000E+00   0.0000000000E+00   0.0000000000E+00   0.0000000000E+00   0.0000000000E+00
   0.2001000000E+01   0.9979582424E+00   0.9972472378E+00   0.1000000000E-03  -0.9658542553E-03  -0.1330153363E-02   0.9000000000E-03  -0.1075903336E-02  -0.1422608838E-02   0.0000000000E+00   0.0000000000E+00   0.0000000000E+00   0.0000000000E+00   0.0000000000E+00   0.0000000000E+00   0.0000000000E+00
     1     2     3     4     5     6     7     8
     2     9    10     3     6    11    12     7
 VARIABLES = X,Y,Z,DU1,DU2,DU3,U1,U2,U3,S11,S22,S33,S12,S13,S23,Vf
 ZONE, T="0.2000D+00" F=FEPOINT, I=   12 J=    2 ET=BRICK
   0.0000000000E+00  -0.1977745599E-01  -0.3552751559E-01   0.0000000000E+00  -0.1254803883E-01  -0.1896537166E-01   0.0000000000E+00  -0.7229417163E-02  -0.1656214393E-01   0.0000000000E+00   0.0000000000E+00   0.0000000000E+00   0.0000000000E+00   0.0000000000E+00   0.0000000000E+00   0.0000000000E+00
   0.1702632878E+01   0.8811538897E+00   0.1293916338E+01   0.2876154558E+00   0.4428123542E+00   0.6551779868E+00   0.4150174224E+00   0.4383415355E+00   0.6387383511E+00   0.0000000000E+00   0.0000000000E+00   0.0000000000E+00   0.0000000000E+00   0.0000000000E+00   0.0000000000E+00   0.0000000000E+00
   0.1080811113E+01   0.1821975217E+01   0.5293026042E+00   0.4241135048E-01   0.4226140238E+00   0.2855526868E+00   0.3839976203E-01   0.3993611932E+00   0.2437499175E+00   0.0000000000E+00   0.0000000000E+00   0.0000000000E+00   0.0000000000E+00   0.0000000000E+00   0.0000000000E+00   0.0000000000E+00
   0.0000000000E+00   0.1079224695E+01  -0.7524107102E-01   0.0000000000E+00   0.3879604557E-01  -0.3929225513E-01   0.0000000000E+00   0.4042864991E-01  -0.3594881590E-01   0.0000000000E+00   0.0000000000E+00   0.0000000000E+00   0.0000000000E+00   0.0000000000E+00   0.0000000000E+00   0.0000000000E+00
   0.0000000000E+00  -0.5198870073E-01   0.1091752004E+01   0.0000000000E+00  -0.2808922738E-01   0.4294687449E-01   0.0000000000E+00  -0.2389947335E-01   0.4880512987E-01   0.0000000000E+00   0.0000000000E+00   0.0000000000E+00   0.0000000000E+00   0.0000000000E+00   0.0000000000E+00   0.0000000000E+00
   0.1016660677E+01  -0.3123844905E-01   0.1405751984E+01  -0.8412177039E-02  -0.3948735923E-01   0.2092363389E+00   0.2507285356E-01   0.8248910187E-02   0.1965156447E+00   0.0000000000E+00   0.0000000000E+00   0.0000000000E+00   0.0000000000E+00   0.0000000000E+00   0.0000000000E+00   0.0000000000E+00
   0.2721168570E+00   0.1015907446E+01   0.5662619428E+00  -0.3441121525E+00   0.3160039594E-01  -0.2109040507E+00  -0.3837709904E+00  -0.1569295005E-01  -0.2228340065E+00   0.0000000000E+00   0.0000000000E+00   0.0000000000E+00   0.0000000000E+00   0.0000000000E+00   0.0000000000E+00   0.0000000000E+00
   0.0000000000E+00   0.1042285842E+01   0.1064356361E+01   0.0000000000E+00   0.2011054492E-01   0.3062174289E-01   0.0000000000E+00   0.2217529660E-01   0.3373461801E-01   0.0000000000E+00   0.0000000000E+00   0.0000000000E+00   0.0000000000E+00   0.0000000000E+00   0.0000000000E+00   0.0000000000E+00
   0.2002000000E+01  -0.1277789164E+00   0.6982115053E+00   0.1000000000E-03  -0.1440672306E+00   0.2718612864E+00   0.1900000000E-02   0.1628831416E-01   0.4263502189E+00   0.0000000000E+00   0.0000000000E+00   0.0000000000E+00   0.0000000000E+00   0.0000000000E+00   0.0000000000E+00   0.0000000000E+00
   0.2002000000E+01   0.7590988412E+00  -0.8388807023E+00   0.1000000000E-03  -0.1418008569E+00  -0.4632671036E+00   0.1900000000E-02  -0.9910030192E-01  -0.3756135987E+00   0.0000000000E+00   0.0000000000E+00   0.0000000000E+00   0.0000000000E+00   0.0000000000E+00   0.0000000000E+00   0.0000000000E+00
   0.2002000000E+01  -0.1499326504E+01   0.1788078299E+00   0.1000000000E-03  -0.7472769276E+00  -0.3632534495E+00   0.1900000000E-02  -0.7520495759E+00  -0.4579387207E+00   0.0000000000E+00   0.0000000000E+00   0.0000000000E+00   0.0000000000E+00   0.0000000000E+00   0.0000000000E+00   0.0000000000E+00
   0.2002000000E+01  -0.5573340085E+00  -0.1673944148E+01   0.1000000000E-03  -0.7002031386E+00  -0.1338777647E+01   0.1900000000E-02  -0.8571308700E+00  -0.1335166501E+01   0.0000000000E+00   0.0000000000E+00   0.0000000000E+00   0.0000000000E+00   0.0000000000E+00   0.0000000000E+00   0.0000000000E+00
     1     2     3     4     5     6     7     8
     2     9    10     3     6    11    12     7
 VARIABLES = X,Y,Z,DU1,DU2,DU3,U1,U2,U3,S11,S22,S33,S12,S13,S23,Vf
 ZONE, T="0.3000D+00" F=FEPOINT, I=   12 J=    2 ET=BRICK
   0.0000000000E+00  -0.8244456670E+03   0.1816151342E+04   0.0000000000E+00  -0.1270058962E+03   0.3806338513E+03   0.0000000000E+00  -0.6974397708E+03   0.1435517491E+04   0.0000000000E+00   0.0000000000E+00   0.0000000000E+00   0.0000000000E+00   0.0000000000E+00   0.0000000000E+00   0.0000000000E+00
   0.4489677736E+07   0.4564870938E+07   0.9409415829E+07   0.9891220604E+06   0.1020452135E+07   0.2090925218E+07   0.3500554676E+07   0.3544418804E+07   0.7318490610E+07   0.0000000000E+00   0.0000000000E+00   0.0000000000E+00   0.0000000000E+00   0.0000000000E+00   0.0000000000E+00   0.0000000000E+00
   0.4525247505E+07   0.4641028837E+07   0.9249599547E+07   0.1007980680E+07   0.1030238353E+07   0.2055735905E+07   0.3517265825E+07   0.3610789484E+07   0.7193863642E+07   0.0000000000E+00   0.0000000000E+00   0.0000000000E+00   0.0000000000E+00   0.0000000000E+00   0.0000000000E+00   0.0000000000E+00
   0.0000000000E+00  -0.1533374042E+04   0.1884507734E+04   0.0000000000E+00  -0.2493717369E+03   0.3827705250E+03   0.0000000000E+00  -0.1285002305E+04   0.1501737209E+04   0.0000000000E+00   0.0000000000E+00   0.0000000000E+00   0.0000000000E+00   0.0000000000E+00   0.0000000000E+00   0.0000000000E+00
   0.0000000000E+00  -0.5787451492E+03   0.1726429136E+04   0.0000000000E+00  -0.8065991207E+02   0.3544432147E+03   0.0000000000E+00  -0.4980852371E+03   0.1370985922E+04   0.0000000000E+00   0.0000000000E+00   0.0000000000E+00   0.0000000000E+00   0.0000000000E+00   0.0000000000E+00   0.0000000000E+00
   0.2181097106E+07   0.2219706647E+07   0.4310393399E+07   0.4831830132E+06   0.4827799834E+06   0.9681456212E+06   0.1697913093E+07   0.1736926664E+07   0.3342246778E+07   0.0000000000E+00   0.0000000000E+00   0.0000000000E+00   0.0000000000E+00   0.0000000000E+00   0.0000000000E+00   0.0000000000E+00
   0.2108840581E+07   0.2173671794E+07   0.4484502939E+07   0.4723740885E+06   0.4752539321E+06   0.1004461652E+07   0.1636465493E+07   0.1698416862E+07   0.3480040287E+07   0.0000000000E+00   0.0000000000E+00   0.0000000000E+00   0.0000000000E+00   0.0000000000E+00   0.0000000000E+00   0.0000000000E+00
   0.0000000000E+00  -0.3344789426E+03   0.1580561672E+04   0.0000000000E+00  -0.1091491313E+02   0.3072934346E+03   0.0000000000E+00  -0.3245640295E+03   0.1272268237E+04   0.0000000000E+00   0.0000000000E+00   0.0000000000E+00   0.0000000000E+00   0.0000000000E+00   0.0000000000E+00   0.0000000000E+00
   0.2003000000E+01  -0.4362092060E+07  -0.8996714985E+07   0.1000000000E-03  -0.9625570745E+06  -0.2010474546E+07   0.2900000000E-02  -0.3399534985E+07  -0.6986240439E+07   0.0000000000E+00   0.0000000000E+00   0.0000000000E+00   0.0000000000E+00   0.0000000000E+00   0.0000000000E+00   0.0000000000E+00
   0.2003000000E+01  -0.4261630959E+07  -0.8734850580E+07   0.1000000000E-03  -0.9401258176E+06  -0.1956579019E+07   0.2900000000E-02  -0.3321506141E+07  -0.6778271562E+07   0.0000000000E+00   0.0000000000E+00   0.0000000000E+00   0.0000000000E+00   0.0000000000E+00   0.0000000000E+00   0.0000000000E+00
   0.2003000000E+01  -0.9306088239E+07  -0.1880245863E+08   0.1000000000E-03  -0.2061491998E+07  -0.4178760343E+07   0.2900000000E-02  -0.7244596241E+07  -0.1462369929E+08   0.0000000000E+00   0.0000000000E+00   0.0000000000E+00   0.0000000000E+00   0.0000000000E+00   0.0000000000E+00   0.0000000000E+00
   0.2003000000E+01  -0.9265466130E+07  -0.1838079888E+08   0.1000000000E-03  -0.2052805964E+07  -0.4094148027E+07   0.2900000000E-02  -0.7212661167E+07  -0.1428665185E+08   0.0000000000E+00   0.0000000000E+00   0.0000000000E+00   0.0000000000E+00   0.0000000000E+00   0.0000000000E+00   0.0000000000E+00
     1     2     3     4     5     6     7     8
     2     9    10     3     6    11    12     7
 VARIABLES = X,Y,Z,DU1,DU2,DU3,U1,U2,U3,S11,S22,S33,S12,S13,S23,Vf
 ZONE, T="0.4000D+00" F=FEPOINT, I=   12 J=    2 ET=BRICK
   0.0000000000E+00  -0.1019056227E+05   0.7220594057E+04   0.0000000000E+00  -0.3313492619E+04  -0.3208221096E+03   0.0000000000E+00  -0.6877069652E+04   0.7541416166E+04   0.0000000000E+00   0.0000000000E+00   0.0000000000E+00   0.0000000000E+00   0.0000000000E+00   0.0000000000E+00   0.0000000000E+00
   0.6782650039E+07   0.2913641030E+08   0.2656414250E+08  -0.1544811836E+07   0.7490806500E+07   0.7440477468E+06   0.8327460876E+07   0.2164560380E+08   0.2582009475E+08   0.0000000000E+00   0.0000000000E+00   0.0000000000E+00   0.0000000000E+00   0.0000000000E+00   0.0000000000E+00   0.0000000000E+00
   0.1526614227E+08   0.8344400470E+07   0.2709860621E+08  -0.2325186451E+07   0.1264117005E+07  -0.1331371109E+06   0.1759132772E+08   0.7080282464E+07   0.2723174332E+08   0.0000000000E+00   0.0000000000E+00   0.0000000000E+00   0.0000000000E+00   0.0000000000E+00   0.0000000000E+00   0.0000000000E+00
   0.0000000000E+00  -0.1027110035E+05   0.5894985325E+03   0.0000000000E+00  -0.2826642821E+04  -0.1947176612E+04   0.0000000000E+00  -0.7445457526E+04   0.2536675145E+04   0.0000000000E+00   0.0000000000E+00   0.0000000000E+00   0.0000000000E+00   0.0000000000E+00   0.0000000000E+00   0.0000000000E+00
   0.0000000000E+00  -0.1361532713E+05   0.3710659339E+04   0.0000000000E+00  -0.5052462181E+04  -0.1395739614E+04   0.0000000000E+00  -0.8562864953E+04   0.5105398954E+04   0.0000000000E+00   0.0000000000E+00   0.0000000000E+00   0.0000000000E+00   0.0000000000E+00   0.0000000000E+00   0.0000000000E+00
   0.1314110485E+08   0.3825466680E+07   0.1343180564E+08   0.4289574870E+07  -0.1354853740E+07   0.3887824182E+06   0.8851528979E+07   0.5180320420E+07   0.1304302223E+08   0.0000000000E+00   0.0000000000E+00   0.0000000000E+00   0.0000000000E+00   0.0000000000E+00   0.0000000000E+00   0.0000000000E+00
   0.7757657460E+07   0.6776708056E+07   0.1418187854E+08   0.5354904371E+06   0.7426494538E+06   0.6546988500E+06   0.7222166022E+07   0.6034057602E+07   0.1352717869E+08   0.0000000000E+00   0.0000000000E+00   0.0000000000E+00   0.0000000000E+00   0.0000000000E+00   0.0000000000E+00   0.0000000000E+00
   0.0000000000E+00  -0.7303537957E+04  -0.8310300646E+03   0.0000000000E+00  -0.3448872021E+04  -0.2244393234E+04   0.0000000000E+00  -0.3855665936E+04   0.1412363169E+04   0.0000000000E+00   0.0000000000E+00   0.0000000000E+00   0.0000000000E+00   0.0000000000E+00   0.0000000000E+00   0.0000000000E+00
   0.2004000000E+01  -0.1675280754E+08  -0.2610311048E+08   0.1000000000E-03  -0.3744723306E+07  -0.2143673053E+06   0.3900000000E-02  -0.1300808423E+08  -0.2588874317E+08   0.0000000000E+00   0.0000000000E+00   0.0000000000E+00   0.0000000000E+00   0.0000000000E+00   0.0000000000E+00   0.0000000000E+00
   0.2004000000E+01  -0.1324126027E+08  -0.2521930169E+08   0.1000000000E-03  -0.1999745727E+07  -0.1771407372E+06   0.3900000000E-02  -0.1124151554E+08  -0.2504216095E+08   0.0000000000E+00   0.0000000000E+00   0.0000000000E+00   0.0000000000E+00   0.0000000000E+00   0.0000000000E+00   0.0000000000E+00
   0.2004000000E+01  -0.4094236411E+08  -0.5486500066E+08   0.1000000000E-03  -0.8812777603E+07  -0.1212908776E+07   0.3900000000E-02  -0.3212958650E+08  -0.5365209288E+08   0.0000000000E+00   0.0000000000E+00   0.0000000000E+00   0.0000000000E+00   0.0000000000E+00   0.0000000000E+00   0.0000000000E+00
   0.2004000000E+01  -0.2518815057E+08  -0.5637613469E+08   0.1000000000E-03  -0.1713550332E+07  -0.1698458858E+07   0.3900000000E-02  -0.2347460124E+08  -0.5467767683E+08   0.0000000000E+00   0.0000000000E+00   0.0000000000E+00   0.0000000000E+00   0.0000000000E+00   0.0000000000E+00   0.0000000000E+00
     1     2     3     4     5     6     7     8
     2     9    10     3     6    11    12     7
 VARIABLES = X,Y,Z,DU1,DU2,DU3,U1,U2,U3,S11,S22,S33,S12,S13,S23,Vf
 ZONE, T="0.5000D+00" F=FEPOINT, I=   12 J=    2 ET=BRICK
   0.0000000000E+00  -0.2548175349E+05  -0.1664968971E+06   0.0000000000E+00  -0.1321681317E+06  -0.4688610920E+05   0.0000000000E+00   0.1066863782E+06  -0.1196107879E+06   0.0000000000E+00   0.0000000000E+00   0.0000000000E+00   0.0000000000E+00   0.0000000000E+00   0.0000000000E+00   0.0000000000E+00
   0.1450930488E+09  -0.7070079111E+09   0.3537650751E+09   0.8210926713E+07  -0.6548798275E+09   0.2559256580E+09   0.1368821211E+09  -0.5212808352E+08   0.9783941714E+08   0.0000000000E+00   0.0000000000E+00   0.0000000000E+00   0.0000000000E+00   0.0000000000E+00   0.0000000000E+00   0.0000000000E+00
  -0.7599557463E+08  -0.1040324521E+10   0.8370129342E+09  -0.3734135906E+08  -0.7932959613E+09   0.5800660958E+09  -0.3865421657E+08  -0.2470285609E+09   0.2569468384E+09   0.0000000000E+00   0.0000000000E+00   0.0000000000E+00   0.0000000000E+00   0.0000000000E+00   0.0000000000E+00   0.0000000000E+00
   0.0000000000E+00  -0.4836647889E+06   0.7556444324E+06   0.0000000000E+00  -0.3699356634E+06   0.2423935745E+05   0.0000000000E+00  -0.1137301255E+06   0.7314050749E+06   0.0000000000E+00   0.0000000000E+00   0.0000000000E+00   0.0000000000E+00   0.0000000000E+00   0.0000000000E+00   0.0000000000E+00
   0.0000000000E+00  -0.1758907236E+06  -0.1595841203E+06   0.0000000000E+00  -0.1272739448E+06   0.9969705171E+03   0.0000000000E+00  -0.4861677887E+05  -0.1605820908E+06   0.0000000000E+00   0.0000000000E+00   0.0000000000E+00   0.0000000000E+00   0.0000000000E+00   0.0000000000E+00   0.0000000000E+00
   0.5215913091E+09  -0.1978243002E+09   0.3125186323E+09   0.9621604300E+08  -0.4582683838E+09   0.2914579550E+09   0.4253752651E+09   0.2604440836E+09   0.2106067626E+08   0.0000000000E+00   0.0000000000E+00   0.0000000000E+00   0.0000000000E+00   0.0000000000E+00   0.0000000000E+00   0.0000000000E+00
  -0.1570402352E+09  -0.2169847739E+09   0.5943545974E+09  -0.4358933996E+07  -0.5666102910E+08   0.7542685739E+09  -0.1526813022E+09  -0.1603237458E+09  -0.1599139774E+09   0.0000000000E+00   0.0000000000E+00   0.0000000000E+00   0.0000000000E+00   0.0000000000E+00   0.0000000000E+00   0.0000000000E+00
   0.0000000000E+00  -0.1080203277E+07  -0.5309619484E+05   0.0000000000E+00  -0.6556153202E+06  -0.2073500305E+05   0.0000000000E+00  -0.4245889566E+06  -0.3236219179E+05   0.0000000000E+00   0.0000000000E+00   0.0000000000E+00   0.0000000000E+00   0.0000000000E+00   0.0000000000E+00   0.0000000000E+00
   0.2005000000E+01   0.1737253663E+10  -0.6961694862E+09   0.1000000000E-03   0.1728240117E+10  -0.7776932023E+09   0.4900000000E-02   0.9013545289E+07   0.8152371611E+08   0.0000000000E+00   0.0000000000E+00   0.0000000000E+00   0.0000000000E+00   0.0000000000E+00   0.0000000000E+00   0.0000000000E+00
   0.2005000000E+01   0.7275480807E+09  -0.1194733720E+10   0.1000000000E-03   0.8588981467E+09  -0.8587280340E+09   0.4900000000E-02  -0.1313500669E+09  -0.3360056859E+09   0.0000000000E+00   0.0000000000E+00   0.0000000000E+00   0.0000000000E+00   0.0000000000E+00   0.0000000000E+00   0.0000000000E+00
   0.2005000000E+01   0.2404644910E+10  -0.9360471054E+09   0.1000000000E-03   0.1642655489E+10  -0.8795240495E+09   0.4900000000E-02   0.7619894205E+09  -0.5652305692E+08   0.0000000000E+00   0.0000000000E+00   0.0000000000E+00   0.0000000000E+00   0.0000000000E+00   0.0000000000E+00   0.0000000000E+00
   0.2005000000E+01  -0.5433983916E+09  -0.1368728626E+10   0.1000000000E-03  -0.3022983564E+09  -0.1247448895E+10   0.4900000000E-02  -0.2411000363E+09  -0.1212797320E+09   0.0000000000E+00   0.0000000000E+00   0.0000000000E+00   0.0000000000E+00   0.0000000000E+00   0.0000000000E+00   0.0000000000E+00
     1     2     3     4     5     6     7     8
     2     9    10     3     6    11    12     7
 VARIABLES = X,Y,Z,DU1,DU2,DU3,U1,U2,U3,S11,S22,S33,S12,S13,S23,Vf
 ZONE, T="0.6000D+00" F=FEPOINT, I=   12 J=    2 ET=BRICK
   0.0000000000E+00   0.2316213562E+07  -0.3912435139E+06   0.0000000000E+00   0.2305592800E+07  -0.3270014256E+07   0.0000000000E+00   0.1062076248E+05   0.2878770742E+07   0.0000000000E+00   0.0000000000E+00   0.0000000000E+00   0.0000000000E+00   0.0000000000E+00   0.0000000000E+00   0.0000000000E+00
   0.2613709482E+11  -0.1273388972E+10  -0.2756347937E+09   0.1779812340E+11   0.5126496404E+10  -0.2469436444E+10   0.8338971416E+10  -0.6399885377E+10   0.2193801651E+10   0.0000000000E+00   0.0000000000E+00   0.0000000000E+00   0.0000000000E+00   0.0000000000E+00   0.0000000000E+00   0.0000000000E+00
   0.2239603469E+11  -0.1209579226E+11  -0.3704884050E+09   0.1595693281E+11  -0.4257798192E+10  -0.3036506599E+10   0.6439101882E+10  -0.7837994070E+10   0.2666018194E+10   0.0000000000E+00   0.0000000000E+00   0.0000000000E+00   0.0000000000E+00   0.0000000000E+00   0.0000000000E+00   0.0000000000E+00
   0.0000000000E+00   0.1596855806E+08  -0.1534622551E+08   0.0000000000E+00   0.2257447746E+08  -0.2137516418E+08   0.0000000000E+00  -0.6605920404E+07   0.6028938667E+07   0.0000000000E+00   0.0000000000E+00   0.0000000000E+00   0.0000000000E+00   0.0000000000E+00   0.0000000000E+00   0.0000000000E+00
   0.0000000000E+00  -0.3241645113E+07   0.5614968338E+07   0.0000000000E+00  -0.3526434564E+07   0.2159189309E+07   0.0000000000E+00   0.2847894518E+06   0.3455778029E+07   0.0000000000E+00   0.0000000000E+00   0.0000000000E+00   0.0000000000E+00   0.0000000000E+00   0.0000000000E+00   0.0000000000E+00
   0.2775303157E+11  -0.1468620943E+11   0.4564008006E+10   0.1835325538E+11  -0.4946725891E+10  -0.2381170601E+10   0.9399776193E+10  -0.9739483541E+10   0.6945178605E+10   0.0000000000E+00   0.0000000000E+00   0.0000000000E+00   0.0000000000E+00   0.0000000000E+00   0.0000000000E+00   0.0000000000E+00
   0.2806282087E+11  -0.3208827879E+11  -0.1602759937E+10   0.2241870034E+11  -0.2433155262E+11  -0.5521475151E+10   0.5644120528E+10  -0.7756726174E+10   0.3918715213E+10   0.0000000000E+00   0.0000000000E+00   0.0000000000E+00   0.0000000000E+00   0.0000000000E+00   0.0000000000E+00   0.0000000000E+00
   0.0000000000E+00  -0.1156348247E+07  -0.2408862553E+07   0.0000000000E+00   0.3507792276E+07  -0.4650201742E+07   0.0000000000E+00  -0.4664141523E+07   0.2241338189E+07   0.0000000000E+00   0.0000000000E+00   0.0000000000E+00   0.0000000000E+00   0.0000000000E+00   0.0000000000E+00   0.0000000000E+00
   0.2006000000E+01   0.1004244554E+11  -0.2107780511E+11   0.1000000000E-03  -0.5432115856E+10  -0.7530518117E+10   0.5900000000E-02   0.1547456140E+11  -0.1354728699E+11   0.0000000000E+00   0.0000000000E+00   0.0000000000E+00   0.0000000000E+00   0.0000000000E+00   0.0000000000E+00   0.0000000000E+00
   0.2006000000E+01   0.1376130015E+11   0.1292933629E+10   0.1000000000E-03   0.2555957191E+10   0.4094044641E+10   0.5900000000E-02   0.1120534296E+11  -0.2801111012E+10   0.0000000000E+00   0.0000000000E+00   0.0000000000E+00   0.0000000000E+00   0.0000000000E+00   0.0000000000E+00   0.0000000000E+00
   0.2006000000E+01   0.3272136712E+11  -0.1701973563E+11   0.1000000000E-03   0.3463239704E+10   0.1663919568E+10   0.5900000000E-02   0.2925812742E+11  -0.1868365519E+11   0.0000000000E+00   0.0000000000E+00   0.0000000000E+00   0.0000000000E+00   0.0000000000E+00   0.0000000000E+00   0.0000000000E+00
   0.2006000000E+01   0.6374833933E+11   0.3218688873E+11   0.1000000000E-03   0.5620721813E+11   0.2861686769E+11   0.5900000000E-02   0.7541121200E+10   0.3570021045E+10   0.0000000000E+00   0.0000000000E+00   0.0000000000E+00   0.0000000000E+00   0.0000000000E+00   0.0000000000E+00   0.0000000000E+00
     1     2     3     4     5     6     7     8
     2     9    10     3     6    11    12     7
 VARIABLES = X,Y,Z,DU1,DU2,DU3,U1,U2,U3,S11,S22,S33,S12,S13,S23,Vf
 ZONE, T="0.7000D+00" F=FEPOINT, I=   12 J=    2 ET=BRICK
   0.0000000000E+00  -0.1569471646E+11  -0.2395800594E+10   0.0000000000E+00  -0.1576848389E+11  -0.2335703526E+10   0.0000000000E+00   0.7376743155E+08  -0.6009706825E+08   0.0000000000E+00   0.0000000000E+00   0.0000000000E+00   0.0000000000E+00   0.0000000000E+00   0.0000000000E+00   0.0000000000E+00
  -0.3073291166E+14  -0.4525233214E+13   0.3347517705E+13  -0.3476222539E+14  -0.2402968917E+13   0.1964776488E+13   0.4029313738E+13  -0.2122264297E+13   0.1382741217E+13   0.0000000000E+00   0.0000000000E+00   0.0000000000E+00   0.0000000000E+00   0.0000000000E+00   0.0000000000E+00   0.0000000000E+00
  -0.7385659665E+13   0.2479964386E+14  -0.8925013281E+14  -0.1838588096E+14   0.5483431966E+14  -0.7050080510E+14   0.1100022130E+14  -0.3003467580E+14  -0.1874932771E+14   0.0000000000E+00   0.0000000000E+00   0.0000000000E+00   0.0000000000E+00   0.0000000000E+00   0.0000000000E+00   0.0000000000E+00
   0.0000000000E+00   0.5234107815E+10  -0.3891537171E+11   0.0000000000E+00   0.5541138573E+10  -0.3865387861E+11   0.0000000000E+00  -0.3070307586E+09  -0.2614931089E+09   0.0000000000E+00   0.0000000000E+00   0.0000000000E+00   0.0000000000E+00   0.0000000000E+00   0.0000000000E+00   0.0000000000E+00
   0.0000000000E+00  -0.2035668419E+11   0.8913144458E+10   0.0000000000E+00  -0.2147608948E+11   0.7587230909E+10   0.0000000000E+00   0.1119405287E+10   0.1325913548E+10   0.0000000000E+00   0.0000000000E+00   0.0000000000E+00   0.0000000000E+00   0.0000000000E+00   0.0000000000E+00   0.0000000000E+00
  -0.4720538050E+14  -0.2809179384E+14   0.2130280734E+14  -0.2745267600E+14  -0.7893963603E+13   0.1131353260E+14  -0.1975270451E+14  -0.2019783024E+14   0.9989274739E+13   0.0000000000E+00   0.0000000000E+00   0.0000000000E+00   0.0000000000E+00   0.0000000000E+00   0.0000000000E+00   0.0000000000E+00
  -0.3992852803E+14  -0.6696948073E+14  -0.5240056629E+13  -0.2135048540E+14  -0.1143574967E+14  -0.4730886936E+13  -0.1857804263E+14  -0.5553373106E+14  -0.5091696926E+12   0.0000000000E+00   0.0000000000E+00   0.0000000000E+00   0.0000000000E+00   0.0000000000E+00   0.0000000000E+00   0.0000000000E+00
   0.0000000000E+00  -0.1565997630E+11  -0.2107348499E+10   0.0000000000E+00  -0.1591157884E+11  -0.2296861916E+10   0.0000000000E+00   0.2516025353E+09   0.1895134160E+09   0.0000000000E+00   0.0000000000E+00   0.0000000000E+00   0.0000000000E+00   0.0000000000E+00   0.0000000000E+00   0.0000000000E+00
   0.2007000000E+01   0.3510631972E+14   0.1445228518E+14   0.1000000000E-03  -0.1137920320E+14   0.4310594412E+14   0.6900000000E-02   0.4648552292E+14  -0.2865365894E+14   0.0000000000E+00   0.0000000000E+00   0.0000000000E+00   0.0000000000E+00   0.0000000000E+00   0.0000000000E+00   0.0000000000E+00
   0.2007000000E+01  -0.9006619505E+14   0.1094367977E+15   0.1000000000E-03  -0.8790720691E+14   0.9527099321E+14   0.6900000000E-02  -0.2158988136E+13   0.1416580452E+14   0.0000000000E+00   0.0000000000E+00   0.0000000000E+00   0.0000000000E+00   0.0000000000E+00   0.0000000000E+00   0.0000000000E+00
   0.2007000000E+01   0.1446693817E+15  -0.5372855546E+14   0.1000000000E-03   0.5039812989E+14  -0.3015820909E+14   0.6900000000E-02   0.9427125182E+14  -0.2357034637E+14   0.0000000000E+00   0.0000000000E+00   0.0000000000E+00   0.0000000000E+00   0.0000000000E+00   0.0000000000E+00   0.0000000000E+00
   0.2007000000E+01   0.5991069874E+14   0.6955370671E+14   0.1000000000E-03  -0.1726737970E+14   0.1572373686E+14   0.6900000000E-02   0.7717807844E+14   0.5382996985E+14   0.0000000000E+00   0.0000000000E+00   0.0000000000E+00   0.0000000000E+00   0.0000000000E+00   0.0000000000E+00   0.0000000000E+00
     1     2     3     4     5     6     7     8
     2     9    10     3     6    11    12     7
 VARIABLES = X,Y,Z,DU1,DU2,DU3,U1,U2,U3,S11,S22,S33,S12,S13,S23,Vf
 ZONE, T="0.8000D+00" F=FEPOINT, I=   12 J=    2 ET=BRICK
   0.0000000000E+00                NaN                NaN   0.0000000000E+00                NaN                NaN   0.0000000000E+00                NaN                NaN   0.0000000000E+00   0.0000000000E+00   0.0000000000E+00   0.0000000000E+00   0.0000000000E+00   0.0000000000E+00   0.0000000000E+00
                NaN                NaN                NaN                NaN                NaN                NaN                NaN                NaN                NaN   0.0000000000E+00   0.0000000000E+00   0.0000000000E+00   0.0000000000E+00   0.0000000000E+00   0.0000000000E+00   0.0000000000E+00
                NaN                NaN                NaN                NaN                NaN                NaN                NaN                NaN                NaN   0.0000000000E+00   0.0000000000E+00   0.0000000000E+00   0.0000000000E+00   0.0000000000E+00   0.0000000000E+00   0.0000000000E+00
   0.0000000000E+00                NaN                NaN   0.0000000000E+00                NaN                NaN   0.0000000000E+00                NaN                NaN   0.0000000000E+00   0.0000000000E+00   0.0000000000E+00   0.0000000000E+00   0.0000000000E+00   0.0000000000E+00   0.0000000000E+00
   0.0000000000E+00                NaN                NaN   0.0000000000E+00                NaN                NaN   0.0000000000E+00                NaN                NaN   0.0000000000E+00   0.0000000000E+00   0.0000000000E+00   0.0000000000E+00   0.0000000000E+00   0.0000000000E+00   0.0000000000E+00
                NaN                NaN                NaN                NaN                NaN                NaN                NaN                NaN                NaN   0.0000000000E+00   0.0000000000E+00   0.0000000000E+00   0.0000000000E+00   0.0000000000E+00   0.0000000000E+00   0.0000000000E+00
                NaN                NaN                NaN                NaN                NaN                NaN                NaN                NaN                NaN   0.0000000000E+00   0.0000000000E+00   0.0000000000E+00   0.0000000000E+00   0.0000000000E+00   0.0000000000E+00   0.0000000000E+00
   0.0000000000E+00                NaN                NaN   0.0000000000E+00                NaN                NaN   0.0000000000E+00                NaN                NaN   0.0000000000E+00   0.0000000000E+00   0.0000000000E+00   0.0000000000E+00   0.0000000000E+00   0.0000000000E+00   0.0000000000E+00