 VARIABLES = X,Y,Z,DU1,DU2,DU3,U1,U2,U3,e11,e22,e33,e12,e13,e23,S11,S22,S33,S12,S13,S23
 ZONE, T="0.5000D-01" F=FEPOINT, I=   12 J=    2 ET=BRICK
   0.0000000000E+00   0.0000000000E+00   0.0000000000E+00   0.0000000000E+00   0.0000000000E+00   0.0000000000E+00   0.0000000000E+00   0.0000000000E+00   0.0000000000E+00   0.0000000000E+00   0.0000000000E+00   0.0000000000E+00   0.0000000000E+00   0.0000000000E+00   0.0000000000E+00   0.9988341484E+00   0.2538619653E-09   0.2538619964E-09   0.5796157084E-17  -0.8783771683E-16  -0.6553873317E-16
   0.1010000000E+01   0.0000000000E+00  -0.1165907112E-17   0.1000000000E-01   0.0000000000E+00  -0.1165907112E-17   0.0000000000E+00   0.0000000000E+00   0.0000000000E+00   0.0000000000E+00   0.0000000000E+00   0.0000000000E+00   0.0000000000E+00   0.0000000000E+00   0.0000000000E+00   0.9988341483E+00   0.2538599215E-09   0.2538597580E-09   0.1158972978E-15   0.6104303139E-16   0.9844353320E-17
   0.1010000000E+01   0.9951664724E+00  -0.2202989940E-18   0.1000000000E-01  -0.4833527642E-02  -0.2202989940E-18   0.0000000000E+00   0.0000000000E+00   0.0000000000E+00   0.0000000000E+00   0.0000000000E+00   0.0000000000E+00   0.0000000000E+00   0.0000000000E+00   0.0000000000E+00   0.9988341482E+00   0.2538641686E-09   0.2538641113E-09   0.1174897071E-15  -0.2205093633E-15   0.3633304303E-16
   0.0000000000E+00   0.9951664724E+00  -0.7927404115E-18   0.0000000000E+00  -0.4833527642E-02  -0.7927404115E-18   0.0000000000E+00   0.0000000000E+00   0.0000000000E+00   0.0000000000E+00   0.0000000000E+00   0.0000000000E+00   0.0000000000E+00   0.0000000000E+00   0.0000000000E+00   0.9988341482E+00   0.2538665542E-09   0.2538664446E-09   0.2305985338E-16   0.9445364237E-16   0.8188947060E-17
   0.0000000000E+00   0.0000000000E+00   0.9951664724E+00   0.0000000000E+00   0.0000000000E+00  -0.4833527642E-02   0.0000000000E+00   0.0000000000E+00   0.0000000000E+00   0.0000000000E+00   0.0000000000E+00   0.0000000000E+00   0.0000000000E+00   0.0000000000E+00   0.0000000000E+00   0.9988341482E+00   0.2538632586E-09   0.2538633910E-09  -0.6216263867E-17  -0.8138108021E-16   0.6547452326E-16
   0.1010000000E+01   0.0000000000E+00   0.9951664724E+00   0.1000000000E-01   0.0000000000E+00  -0.4833527642E-02   0.0000000000E+00   0.0000000000E+00   0.0000000000E+00   0.0000000000E+00   0.0000000000E+00   0.0000000000E+00   0.0000000000E+00   0.0000000000E+00   0.0000000000E+00   0.9988341482E+00   0.2538595374E-09   0.2538594751E-09  -0.6388129759E-16   0.9165253295E-16   0.7784831992E-16
   0.1010000000E+01   0.9951664724E+00   0.9951664724E+00   0.1000000000E-01  -0.4833527642E-02  -0.4833527642E-02   0.0000000000E+00   0.0000000000E+00   0.0000000000E+00   0.0000000000E+00   0.0000000000E+00   0.0000000000E+00   0.0000000000E+00   0.0000000000E+00   0.0000000000E+00   0.9988341481E+00   0.2538584928E-09   0.2538585366E-09  -0.1342620610E-16  -0.1661689431E-15  -0.1900467088E-16
   0.0000000000E+00   0.9951664724E+00   0.9951664724E+00   0.0000000000E+00  -0.4833527642E-02  -0.4833527642E-02   0.0000000000E+00   0.0000000000E+00   0.0000000000E+00   0.0000000000E+00   0.0000000000E+00   0.0000000000E+00   0.0000000000E+00   0.0000000000E+00   0.0000000000E+00   0.9988341481E+00   0.2538546181E-09   0.2538546097E-09  -0.2114344201E-17   0.2423819708E-16  -0.5202427596E-18
   0.2020000000E+01   0.0000000000E+00  -0.1404930775E-17   0.2000000000E-01   0.0000000000E+00  -0.1404930775E-17   0.0000000000E+00   0.0000000000E+00   0.0000000000E+00   0.0000000000E+00   0.0000000000E+00   0.0000000000E+00   0.0000000000E+00   0.0000000000E+00   0.0000000000E+00   0.9988341483E+00   0.2538640343E-09   0.2538640907E-09   0.2165157912E-16  -0.1514259938E-15   0.2962093795E-16
   0.2020000000E+01   0.9951664724E+00  -0.1047736309E-17   0.2000000000E-01  -0.4833527642E-02  -0.1047736309E-17   0.0000000000E+00   0.0000000000E+00   0.0000000000E+00   0.0000000000E+00   0.0000000000E+00   0.0000000000E+00   0.0000000000E+00   0.0000000000E+00   0.0000000000E+00   0.9988341482E+00   0.2538601334E-09   0.2538600172E-09  -0.9391982280E-16   0.5565821762E-16  -0.2426988362E-16
   0.2020000000E+01   0.0000000000E+00   0.9951664724E+00   0.2000000000E-01   0.0000000000E+00  -0.4833527642E-02   0.0000000000E+00   0.0000000000E+00   0.0000000000E+00   0.0000000000E+00   0.0000000000E+00   0.0000000000E+00   0.0000000000E+00   0.0000000000E+00   0.0000000000E+00   0.9988341482E+00   0.2538619728E-09   0.2538621304E-09   0.3255271029E-16  -0.6406011757E-16  -0.7151184472E-16
   0.2020000000E+01   0.9951664724E+00   0.9951664724E+00   0.2000000000E-01  -0.4833527642E-02  -0.4833527642E-02   0.0000000000E+00   0.0000000000E+00   0.0000000000E+00   0.0000000000E+00   0.0000000000E+00   0.0000000000E+00   0.0000000000E+00   0.0000000000E+00   0.0000000000E+00   0.9988341481E+00   0.2538607178E-09   0.2538607027E-09  -0.1006662968E-16   0.8696638724E-16  -0.2372064603E-16
     1     2     3     4     5     6     7     8
     2     9    10     3     6    11    12     7
 VARIABLES = X,Y,Z,DU1,DU2,DU3,U1,U2,U3,e11,e22,e33,e12,e13,e23,S11,S22,S33,S12,S13,S23
 ZONE, T="0.1000D+00" F=FEPOINT, I=   12 J=    2 ET=BRICK
   0.0000000000E+00   0.0000000000E+00   0.0000000000E+00   0.0000000000E+00   0.0000000000E+00   0.0000000000E+00   0.0000000000E+00   0.0000000000E+00   0.0000000000E+00   0.0000000000E+00   0.0000000000E+00   0.0000000000E+00   0.0000000000E+00   0.0000000000E+00   0.0000000000E+00   0.1071134398E+01   0.4336619727E-06   0.4336619729E-06   0.5778486804E-17  -0.9506552157E-17  -0.6742097754E-16
   0.1020000000E+01   0.0000000000E+00   0.2139383191E-17   0.1000000000E-01   0.0000000000E+00   0.3305290303E-17   0.1000000000E-01   0.0000000000E+00  -0.1165907112E-17   0.0000000000E+00   0.0000000000E+00   0.0000000000E+00   0.0000000000E+00   0.0000000000E+00   0.0000000000E+00   0.1071134398E+01   0.4336619713E-06   0.4336619713E-06   0.2974661490E-16   0.1236726294E-15  -0.1236320058E-16
   0.1020000000E+01   0.9901785225E+00   0.1565047307E-17   0.1000000000E-01  -0.4987949814E-02   0.1785346301E-17   0.1000000000E-01  -0.4833527642E-02  -0.2202989940E-18   0.0000000000E+00   0.0000000000E+00   0.0000000000E+00   0.0000000000E+00   0.0000000000E+00   0.0000000000E+00   0.1071134398E+01   0.4336619707E-06   0.4336619707E-06   0.9177844736E-16  -0.4557222687E-16   0.9099612205E-16
   0.0000000000E+00   0.9901785225E+00  -0.1702978274E-17   0.0000000000E+00  -0.4987949814E-02  -0.9102378629E-18   0.0000000000E+00  -0.4833527642E-02  -0.7927404115E-18   0.0000000000E+00   0.0000000000E+00   0.0000000000E+00   0.0000000000E+00   0.0000000000E+00   0.0000000000E+00   0.1071134398E+01   0.4336619729E-06   0.4336619731E-06   0.9744650910E-16   0.1375777823E-15   0.1072943155E-15
   0.0000000000E+00   0.0000000000E+00   0.9901785225E+00   0.0000000000E+00   0.0000000000E+00  -0.4987949814E-02   0.0000000000E+00   0.0000000000E+00  -0.4833527642E-02   0.0000000000E+00   0.0000000000E+00   0.0000000000E+00   0.0000000000E+00   0.0000000000E+00   0.0000000000E+00   0.1071134398E+01   0.4336619756E-06   0.4336619756E-06  -0.2474114352E-16   0.1093896413E-15   0.9455260840E-16
   0.1020000000E+01   0.0000000000E+00   0.9901785225E+00   0.1000000000E-01   0.0000000000E+00  -0.4987949814E-02   0.1000000000E-01   0.0000000000E+00  -0.4833527642E-02   0.0000000000E+00   0.0000000000E+00   0.0000000000E+00   0.0000000000E+00   0.0000000000E+00   0.0000000000E+00   0.1071134398E+01   0.4336619763E-06   0.4336619762E-06   0.3945995740E-16   0.5612348472E-16  -0.4304601690E-16
   0.1020000000E+01   0.9901785225E+00   0.9901785225E+00   0.1000000000E-01  -0.4987949814E-02  -0.4987949814E-02   0.1000000000E-01  -0.4833527642E-02  -0.4833527642E-02   0.0000000000E+00   0.0000000000E+00   0.0000000000E+00   0.0000000000E+00   0.0000000000E+00   0.0000000000E+00   0.1071134397E+01   0.4336619757E-06   0.4336619755E-06  -0.1541570629E-16  -0.2984588233E-16   0.2014861924E-16
   0.0000000000E+00   0.9901785225E+00   0.9901785225E+00   0.0000000000E+00  -0.4987949814E-02  -0.4987949814E-02   0.0000000000E+00  -0.4833527642E-02  -0.4833527642E-02   0.0000000000E+00   0.0000000000E+00   0.0000000000E+00   0.0000000000E+00   0.0000000000E+00   0.0000000000E+00   0.1071134398E+01   0.4336619758E-06   0.4336619759E-06   0.9338327763E-16  -0.2612127310E-16   0.1981590665E-15
   0.2040000000E+01   0.0000000000E+00   0.3155891677E-17   0.2000000000E-01   0.0000000000E+00   0.4560822452E-17   0.2000000000E-01   0.0000000000E+00  -0.1404930775E-17   0.0000000000E+00   0.0000000000E+00   0.0000000000E+00   0.0000000000E+00   0.0000000000E+00   0.0000000000E+00   0.1071134398E+01   0.4336619728E-06   0.4336619728E-06   0.2373330379E-16  -0.3825126901E-16  -0.3251421716E-16
   0.2040000000E+01   0.9901785225E+00   0.1060593236E-17   0.2000000000E-01  -0.4987949814E-02   0.2108329545E-17   0.2000000000E-01  -0.4833527642E-02  -0.1047736309E-17   0.0000000000E+00   0.0000000000E+00   0.0000000000E+00   0.0000000000E+00   0.0000000000E+00   0.0000000000E+00   0.1071134398E+01   0.4336619764E-06   0.4336619765E-06  -0.5773221754E-16   0.9565860870E-16   0.5320244489E-17
   0.2040000000E+01   0.0000000000E+00   0.9901785225E+00   0.2000000000E-01   0.0000000000E+00  -0.4987949814E-02   0.2000000000E-01   0.0000000000E+00  -0.4833527642E-02   0.0000000000E+00   0.0000000000E+00   0.0000000000E+00   0.0000000000E+00   0.0000000000E+00   0.0000000000E+00   0.1071134398E+01   0.4336619747E-06   0.4336619746E-06   0.2407373017E-16  -0.2043281930E-15  -0.5139799925E-16
   0.2040000000E+01   0.9901785225E+00   0.9901785225E+00   0.2000000000E-01  -0.4987949814E-02  -0.4987949814E-02   0.2000000000E-01  -0.4833527642E-02  -0.4833527642E-02   0.0000000000E+00   0.0000000000E+00   0.0000000000E+00   0.0000000000E+00   0.0000000000E+00   0.0000000000E+00   0.1071134397E+01   0.4336619785E-06   0.4336619785E-06  -0.6219425839E-16   0.2598463335E-15   0.8092113104E-16
     1     2     3     4     5     6     7     8
     2     9    10     3     6    11    12     7
 VARIABLES = X,Y,Z,DU1,DU2,DU3,U1,U2,U3,e11,e22,e33,e12,e13,e23,S11,S22,S33,S12,S13,S23
 ZONE, T="0.1500D+00" F=FEPOINT, I=   12 J=    2 ET=BRICK
   0.0000000000E+00   0.0000000000E+00   0.0000000000E+00   0.0000000000E+00   0.0000000000E+00   0.0000000000E+00   0.0000000000E+00   0.0000000000E+00   0.0000000000E+00   0.0000000000E+00   0.0000000000E+00   0.0000000000E+00   0.0000000000E+00   0.0000000000E+00   0.0000000000E+00   0.1115661125E+01   0.1785849042E-09   0.1785848969E-09   0.1802176957E-17  -0.3677223167E-16  -0.4051946633E-16
   0.1030000000E+01   0.0000000000E+00  -0.3555127257E-17   0.1000000000E-01   0.0000000000E+00  -0.5694510448E-17   0.2000000000E-01   0.0000000000E+00   0.2139383191E-17   0.0000000000E+00   0.0000000000E+00   0.0000000000E+00   0.0000000000E+00   0.0000000000E+00   0.0000000000E+00   0.1115661125E+01   0.1785957256E-09   0.1785957501E-09   0.9477172487E-16   0.3328626110E-16   0.1622676997E-17
   0.1030000000E+01   0.9851859435E+00  -0.1478864983E-17   0.1000000000E-01  -0.4992579023E-02  -0.3043912291E-17   0.2000000000E-01  -0.9821477456E-02   0.1565047307E-17   0.0000000000E+00   0.0000000000E+00   0.0000000000E+00   0.0000000000E+00   0.0000000000E+00   0.0000000000E+00   0.1115661125E+01   0.1785994283E-09   0.1785993370E-09   0.1331513249E-15  -0.1409849720E-15   0.2297143988E-16
   0.0000000000E+00   0.9851859435E+00  -0.3614962080E-17   0.0000000000E+00  -0.4992579023E-02  -0.1911983806E-17   0.0000000000E+00  -0.9821477456E-02  -0.1702978274E-17   0.0000000000E+00   0.0000000000E+00   0.0000000000E+00   0.0000000000E+00   0.0000000000E+00   0.0000000000E+00   0.1115661125E+01   0.1785945819E-09   0.1785946089E-09   0.3500324031E-16   0.6965687749E-16  -0.2131755129E-16
   0.0000000000E+00   0.0000000000E+00   0.9851859435E+00   0.0000000000E+00   0.0000000000E+00  -0.4992579023E-02   0.0000000000E+00   0.0000000000E+00  -0.9821477456E-02   0.0000000000E+00   0.0000000000E+00   0.0000000000E+00   0.0000000000E+00   0.0000000000E+00   0.0000000000E+00   0.1115661125E+01   0.1785954899E-09   0.1785954639E-09  -0.2281904555E-16  -0.2426344009E-16  -0.1805456411E-16
   0.1030000000E+01   0.0000000000E+00   0.9851859435E+00   0.1000000000E-01   0.0000000000E+00  -0.4992579023E-02   0.2000000000E-01   0.0000000000E+00  -0.9821477456E-02   0.0000000000E+00   0.0000000000E+00   0.0000000000E+00   0.0000000000E+00   0.0000000000E+00   0.0000000000E+00   0.1115661125E+01   0.1785994224E-09   0.1785994843E-09  -0.6886373292E-16   0.1345808519E-15   0.2826280497E-16
   0.1030000000E+01   0.9851859435E+00   0.9851859435E+00   0.1000000000E-01  -0.4992579023E-02  -0.4992579023E-02   0.2000000000E-01  -0.9821477456E-02  -0.9821477456E-02   0.0000000000E+00   0.0000000000E+00   0.0000000000E+00   0.0000000000E+00   0.0000000000E+00   0.0000000000E+00   0.1115661125E+01   0.1785927406E-09   0.1785926866E-09  -0.1313631502E-15  -0.1061085356E-15   0.4246690640E-16
   0.0000000000E+00   0.9851859435E+00   0.9851859435E+00   0.0000000000E+00  -0.4992579023E-02  -0.4992579023E-02   0.0000000000E+00  -0.9821477456E-02  -0.9821477456E-02   0.0000000000E+00   0.0000000000E+00   0.0000000000E+00   0.0000000000E+00   0.0000000000E+00   0.0000000000E+00   0.1115661125E+01   0.1785945940E-09   0.1785946023E-09  -0.1482379284E-16   0.3462960125E-16  -0.1443914482E-16
   0.2060000000E+01   0.0000000000E+00  -0.6342891127E-17   0.2000000000E-01   0.0000000000E+00  -0.9498782804E-17   0.4000000000E-01   0.0000000000E+00   0.3155891677E-17   0.0000000000E+00   0.0000000000E+00   0.0000000000E+00   0.0000000000E+00   0.0000000000E+00   0.0000000000E+00   0.1115661125E+01   0.1785944555E-09   0.1785943548E-09  -0.1273823601E-16   0.1153408014E-15   0.1952639913E-16
   0.2060000000E+01   0.9851859435E+00  -0.5414235452E-17   0.2000000000E-01  -0.4992579023E-02  -0.6474828688E-17   0.4000000000E-01  -0.9821477456E-02   0.1060593236E-17   0.0000000000E+00   0.0000000000E+00   0.0000000000E+00   0.0000000000E+00   0.0000000000E+00   0.0000000000E+00   0.1115661125E+01   0.1786074546E-09   0.1786074766E-09   0.1807094063E-16   0.8701076999E-16  -0.5730296318E-16
   0.2060000000E+01   0.0000000000E+00   0.9851859435E+00   0.2000000000E-01   0.0000000000E+00  -0.4992579023E-02   0.4000000000E-01   0.0000000000E+00  -0.9821477456E-02   0.0000000000E+00   0.0000000000E+00   0.0000000000E+00   0.0000000000E+00   0.0000000000E+00   0.0000000000E+00   0.1115661125E+01   0.1785913110E-09   0.1785913038E-09   0.2410318443E-16  -0.2720239109E-15   0.4110741979E-16
   0.2060000000E+01   0.9851859435E+00   0.9851859435E+00   0.2000000000E-01  -0.4992579023E-02  -0.4992579023E-02   0.4000000000E-01  -0.9821477456E-02  -0.9821477456E-02   0.0000000000E+00   0.0000000000E+00   0.0000000000E+00   0.0000000000E+00   0.0000000000E+00   0.0000000000E+00   0.1115661125E+01   0.1785938898E-09   0.1785940053E-09  -0.1820376575E-16   0.1771083116E-15  -0.8175993280E-16
     1     2     3     4     5     6     7     8
     2     9    10     3     6    11    12     7
 VARIABLES = X,Y,Z,DU1,DU2,DU3,U1,U2,U3,e11,e22,e33,e12,e13,e23,S11,S22,S33,S12,S13,S23
 ZONE, T="0.2000D+00" F=FEPOINT, I=   12 J=    2 ET=BRICK
   0.0000000000E+00   0.0000000000E+00   0.0000000000E+00   0.0000000000E+00   0.0000000000E+00   0.0000000000E+00   0.0000000000E+00   0.0000000000E+00   0.0000000000E+00   0.0000000000E+00   0.0000000000E+00   0.0000000000E+00   0.0000000000E+00   0.0000000000E+00   0.0000000000E+00   0.1148331417E+01   0.1880113312E-10   0.1880134835E-10  -0.4620061538E-17  -0.7995552508E-16  -0.2506176629E-16
   0.1040000000E+01   0.0000000000E+00  -0.2605569169E-17   0.1000000000E-01   0.0000000000E+00   0.9495580874E-18   0.3000000000E-01   0.0000000000E+00  -0.3555127257E-17   0.0000000000E+00   0.0000000000E+00   0.0000000000E+00   0.0000000000E+00   0.0000000000E+00   0.0000000000E+00   0.1148331417E+01   0.1880239984E-10   0.1880239984E-10  -0.7632997144E-16   0.5124609261E-16  -0.4550398057E-17
   0.1040000000E+01   0.9801913886E+00  -0.2429112008E-17   0.1000000000E-01  -0.4994554951E-02  -0.9502470247E-18   0.3000000000E-01  -0.1481405648E-01  -0.1478864983E-17   0.0000000000E+00   0.0000000000E+00   0.0000000000E+00   0.0000000000E+00   0.0000000000E+00   0.0000000000E+00   0.1148331417E+01   0.1879429866E-10   0.1879429869E-10  -0.8597234345E-16   0.3369914444E-16  -0.3387687915E-16
   0.0000000000E+00   0.9801913886E+00  -0.3349525484E-17   0.0000000000E+00  -0.4994554951E-02   0.2654365969E-18   0.0000000000E+00  -0.1481405648E-01  -0.3614962080E-17   0.0000000000E+00   0.0000000000E+00   0.0000000000E+00   0.0000000000E+00   0.0000000000E+00   0.0000000000E+00   0.1148331417E+01   0.1878247555E-10   0.1878272743E-10   0.4636921028E-16   0.6417855562E-16   0.5741515285E-16
   0.0000000000E+00   0.0000000000E+00   0.9801913886E+00   0.0000000000E+00   0.0000000000E+00  -0.4994554951E-02   0.0000000000E+00   0.0000000000E+00  -0.1481405648E-01   0.0000000000E+00   0.0000000000E+00   0.0000000000E+00   0.0000000000E+00   0.0000000000E+00   0.0000000000E+00   0.1148331417E+01   0.1881038747E-10   0.1881032207E-10  -0.3932859045E-17  -0.2781644860E-16  -0.4054967544E-16
   0.1040000000E+01   0.0000000000E+00   0.9801913886E+00   0.1000000000E-01   0.0000000000E+00  -0.4994554951E-02   0.3000000000E-01   0.0000000000E+00  -0.1481405648E-01   0.0000000000E+00   0.0000000000E+00   0.0000000000E+00   0.0000000000E+00   0.0000000000E+00   0.0000000000E+00   0.1148331417E+01   0.1880331255E-10   0.1880325488E-10  -0.3715008475E-17  -0.1793280852E-16   0.2280347535E-16
   0.1040000000E+01   0.9801913886E+00   0.9801913886E+00   0.1000000000E-01  -0.4994554951E-02  -0.4994554951E-02   0.3000000000E-01  -0.1481405648E-01  -0.1481405648E-01   0.0000000000E+00   0.0000000000E+00   0.0000000000E+00   0.0000000000E+00   0.0000000000E+00   0.0000000000E+00   0.1148331417E+01   0.1880548325E-10   0.1880542557E-10  -0.3722052653E-16   0.5639508746E-16   0.1398802724E-16
   0.0000000000E+00   0.9801913886E+00   0.9801913886E+00   0.0000000000E+00  -0.4994554951E-02  -0.4994554951E-02   0.0000000000E+00  -0.1481405648E-01  -0.1481405648E-01   0.0000000000E+00   0.0000000000E+00   0.0000000000E+00   0.0000000000E+00   0.0000000000E+00   0.0000000000E+00   0.1148331417E+01   0.1881775564E-10   0.1881772679E-10  -0.2699373048E-16  -0.1795559746E-16   0.8418307775E-16
   0.2080000000E+01   0.0000000000E+00  -0.3854892348E-17   0.2000000000E-01   0.0000000000E+00   0.2487998779E-17   0.6000000000E-01   0.0000000000E+00  -0.6342891127E-17   0.0000000000E+00   0.0000000000E+00   0.0000000000E+00   0.0000000000E+00   0.0000000000E+00   0.0000000000E+00   0.1148331417E+01   0.1879775720E-10   0.1879765731E-10  -0.1124823896E-16  -0.2948718209E-15   0.2336754344E-16
   0.2080000000E+01   0.9801913886E+00  -0.8523734321E-20   0.2000000000E-01  -0.4994554951E-02   0.5405711718E-17   0.6000000000E-01  -0.1481405648E-01  -0.5414235452E-17   0.0000000000E+00   0.0000000000E+00   0.0000000000E+00   0.0000000000E+00   0.0000000000E+00   0.0000000000E+00   0.1148331417E+01   0.1879993949E-10   0.1879980302E-10   0.1155179584E-16   0.2149928113E-15   0.2161905497E-16
   0.2080000000E+01   0.0000000000E+00   0.9801913886E+00   0.2000000000E-01   0.0000000000E+00  -0.4994554951E-02   0.6000000000E-01   0.0000000000E+00  -0.1481405648E-01   0.0000000000E+00   0.0000000000E+00   0.0000000000E+00   0.0000000000E+00   0.0000000000E+00   0.0000000000E+00   0.1148331417E+01   0.1879005535E-10   0.1879012076E-10   0.1091477144E-16  -0.2421992734E-16   0.2653911424E-17
   0.2080000000E+01   0.9801913886E+00   0.9801913886E+00   0.2000000000E-01  -0.4994554951E-02  -0.4994554951E-02   0.6000000000E-01  -0.1481405648E-01  -0.1481405648E-01   0.0000000000E+00   0.0000000000E+00   0.0000000000E+00   0.0000000000E+00   0.0000000000E+00   0.0000000000E+00   0.1148331417E+01   0.1878710171E-10   0.1878713055E-10  -0.1838256205E-16  -0.2651563159E-16  -0.1057913644E-15
     1     2     3     4     5     6     7     8
     2     9    10     3     6    11    12     7
 VARIABLES = X,Y,Z,DU1,DU2,DU3,U1,U2,U3,e11,e22,e33,e12,e13,e23,S11,S22,S33,S12,S13,S23
 ZONE, T="0.2500D+00" F=FEPOINT, I=   12 J=    2 ET=BRICK
   0.0000000000E+00   0.0000000000E+00   0.0000000000E+00   0.0000000000E+00   0.0000000000E+00   0.0000000000E+00   0.0000000000E+00   0.0000000000E+00   0.0000000000E+00   0.0000000000E+00   0.0000000000E+00   0.0000000000E+00   0.0000000000E+00   0.0000000000E+00   0.0000000000E+00   0.1174312058E+01   0.3895825087E-11   0.3895811463E-11   0.4036494220E-17  -0.1321441549E-15   0.6628042331E-17
   0.1050000000E+01   0.0000000000E+00  -0.8092499044E-17   0.1000000000E-01   0.0000000000E+00  -0.5486929874E-17   0.4000000000E-01   0.0000000000E+00  -0.2605569169E-17   0.0000000000E+00   0.0000000000E+00   0.0000000000E+00   0.0000000000E+00   0.0000000000E+00   0.0000000000E+00   0.1174312058E+01   0.3914443333E-11   0.3914423399E-11   0.1385506159E-15   0.2131070024E-15  -0.1655089030E-17
   0.1050000000E+01   0.9751957187E+00  -0.3549954305E-17   0.1000000000E-01  -0.4995669893E-02  -0.1120842297E-17   0.4000000000E-01  -0.1980861143E-01  -0.2429112008E-17   0.0000000000E+00   0.0000000000E+00   0.0000000000E+00   0.0000000000E+00   0.0000000000E+00   0.0000000000E+00   0.1174312058E+01   0.3917535973E-11   0.3917434316E-11   0.1573495247E-15  -0.1490188440E-15   0.1403971906E-16
   0.0000000000E+00   0.9751957187E+00  -0.3820814640E-17   0.0000000000E+00  -0.4995669893E-02  -0.4712891565E-18   0.0000000000E+00  -0.1980861143E-01  -0.3349525484E-17   0.0000000000E+00   0.0000000000E+00   0.0000000000E+00   0.0000000000E+00   0.0000000000E+00   0.0000000000E+00   0.1174312058E+01   0.3924150096E-11   0.3924259055E-11   0.4383549567E-16   0.4835393448E-16  -0.2062658515E-16
   0.0000000000E+00   0.0000000000E+00   0.9751957187E+00   0.0000000000E+00   0.0000000000E+00  -0.4995669893E-02   0.0000000000E+00   0.0000000000E+00  -0.1980861143E-01   0.0000000000E+00   0.0000000000E+00   0.0000000000E+00   0.0000000000E+00   0.0000000000E+00   0.0000000000E+00   0.1174312058E+01   0.3917052012E-11   0.3917027444E-11  -0.1869267222E-16  -0.6611497456E-16  -0.4434650314E-16
   0.1050000000E+01   0.0000000000E+00   0.9751957187E+00   0.1000000000E-01   0.0000000000E+00  -0.4995669893E-02   0.4000000000E-01   0.0000000000E+00  -0.1980861143E-01   0.0000000000E+00   0.0000000000E+00   0.0000000000E+00   0.0000000000E+00   0.0000000000E+00   0.0000000000E+00   0.1174312058E+01   0.3917454260E-11   0.3917516038E-11   0.8223592226E-17   0.1709971965E-15   0.5903864296E-16
   0.1050000000E+01   0.9751957187E+00   0.9751957187E+00   0.1000000000E-01  -0.4995669893E-02  -0.4995669893E-02   0.4000000000E-01  -0.1980861143E-01  -0.1980861143E-01   0.0000000000E+00   0.0000000000E+00   0.0000000000E+00   0.0000000000E+00   0.0000000000E+00   0.0000000000E+00   0.1174312058E+01   0.3910026966E-11   0.3910007023E-11  -0.1015600035E-15  -0.1652252963E-15  -0.4952414153E-16
   0.0000000000E+00   0.9751957187E+00   0.9751957187E+00   0.0000000000E+00  -0.4995669893E-02  -0.4995669893E-02   0.0000000000E+00  -0.1980861143E-01  -0.1980861143E-01   0.0000000000E+00   0.0000000000E+00   0.0000000000E+00   0.0000000000E+00   0.0000000000E+00   0.0000000000E+00   0.1174312058E+01   0.3919360283E-11   0.3919458298E-11  -0.6384540140E-16   0.3285376449E-16  -0.3801408745E-16
   0.2100000000E+01   0.0000000000E+00  -0.6864453327E-17   0.2000000000E-01   0.0000000000E+00  -0.3009560979E-17   0.8000000000E-01   0.0000000000E+00  -0.3854892348E-17   0.0000000000E+00   0.0000000000E+00   0.0000000000E+00   0.0000000000E+00   0.0000000000E+00   0.0000000000E+00   0.1174312058E+01   0.3912163244E-11   0.3912325662E-11   0.1169834834E-16  -0.2207232369E-15  -0.2353025929E-16
   0.2100000000E+01   0.9751957187E+00  -0.1317998588E-16   0.2000000000E-01  -0.4995669893E-02  -0.1317146214E-16   0.8000000000E-01  -0.1980861143E-01  -0.8523734321E-20   0.0000000000E+00   0.0000000000E+00   0.0000000000E+00   0.0000000000E+00   0.0000000000E+00   0.0000000000E+00   0.1174312058E+01   0.3910616923E-11   0.3910820203E-11  -0.1073528825E-15   0.1123382613E-15   0.3807376805E-16
   0.2100000000E+01   0.0000000000E+00   0.9751957187E+00   0.2000000000E-01   0.0000000000E+00  -0.4995669893E-02   0.8000000000E-01   0.0000000000E+00  -0.1980861143E-01   0.0000000000E+00   0.0000000000E+00   0.0000000000E+00   0.0000000000E+00   0.0000000000E+00   0.0000000000E+00   0.1174312058E+01   0.3917878387E-11   0.3917888370E-11   0.2200890827E-16  -0.1390606240E-15  -0.3330145054E-16
   0.2100000000E+01   0.9751957187E+00   0.9751957187E+00   0.2000000000E-01  -0.4995669893E-02  -0.4995669893E-02   0.8000000000E-01  -0.1980861143E-01  -0.1980861143E-01   0.0000000000E+00   0.0000000000E+00   0.0000000000E+00   0.0000000000E+00   0.0000000000E+00   0.0000000000E+00   0.1174312058E+01   0.3921592032E-11   0.3921642877E-11   0.6018369421E-16   0.1239247495E-15   0.4026361195E-16
     1     2     3     4     5     6     7     8
     2     9    10     3     6    11    12     7
 VARIABLES = X,Y,Z,DU1,DU2,DU3,U1,U2,U3,e11,e22,e33,e12,e13,e23,S11,S22,S33,S12,S13,S23
 ZONE, T="0.3000D+00" F=FEPOINT, I=   12 J=    2 ET=BRICK
   0.0000000000E+00   0.0000000000E+00   0.0000000000E+00   0.0000000000E+00   0.0000000000E+00   0.0000000000E+00   0.0000000000E+00   0.0000000000E+00   0.0000000000E+00   0.0000000000E+00   0.0000000000E+00   0.0000000000E+00   0.0000000000E+00   0.0000000000E+00   0.0000000000E+00   0.1195966001E+01   0.1148733552E-11   0.1148755526E-11  -0.3142814467E-17   0.5160031687E-16  -0.1146370196E-16
   0.1060000000E+01   0.0000000000E+00   0.6694081892E-17   0.1000000000E-01   0.0000000000E+00   0.1478658094E-16   0.5000000000E-01   0.0000000000E+00  -0.8092499044E-17   0.0000000000E+00   0.0000000000E+00   0.0000000000E+00   0.0000000000E+00   0.0000000000E+00   0.0000000000E+00   0.1195966001E+01   0.1155170184E-11   0.1155115509E-11  -0.3346763732E-16  -0.2216888164E-16  -0.5086149592E-16
   0.1060000000E+01   0.9701993277E+00   0.5629765437E-18   0.1000000000E-01  -0.4996391010E-02   0.4112930848E-17   0.5000000000E-01  -0.2480428132E-01  -0.3549954305E-17   0.0000000000E+00   0.0000000000E+00   0.0000000000E+00   0.0000000000E+00   0.0000000000E+00   0.0000000000E+00   0.1195966001E+01   0.1163338960E-11   0.1163364342E-11   0.2847015305E-16  -0.7869594553E-16  -0.1792501598E-16
   0.0000000000E+00   0.9701993277E+00  -0.2576773933E-17   0.0000000000E+00  -0.4996391010E-02   0.1244040707E-17   0.0000000000E+00  -0.2480428132E-01  -0.3820814640E-17   0.0000000000E+00   0.0000000000E+00   0.0000000000E+00   0.0000000000E+00   0.0000000000E+00   0.0000000000E+00   0.1195966001E+01   0.1160132317E-11   0.1160234336E-11  -0.8367243950E-16   0.3214623537E-16  -0.6021929787E-16
   0.0000000000E+00   0.0000000000E+00   0.9701993277E+00   0.0000000000E+00   0.0000000000E+00  -0.4996391010E-02   0.0000000000E+00   0.0000000000E+00  -0.2480428132E-01   0.0000000000E+00   0.0000000000E+00   0.0000000000E+00   0.0000000000E+00   0.0000000000E+00   0.0000000000E+00   0.1195966001E+01   0.1162439239E-11   0.1162351869E-11  -0.1064906421E-16   0.4581768660E-17  -0.2441306177E-16
   0.1060000000E+01   0.0000000000E+00   0.9701993277E+00   0.1000000000E-01   0.0000000000E+00  -0.4996391010E-02   0.5000000000E-01   0.0000000000E+00  -0.2480428132E-01   0.0000000000E+00   0.0000000000E+00   0.0000000000E+00   0.0000000000E+00   0.0000000000E+00   0.0000000000E+00   0.1195966001E+01   0.1155155534E-11   0.1155130170E-11   0.6320465592E-17  -0.1747887089E-16  -0.3730127798E-16
   0.1060000000E+01   0.9701993277E+00   0.9701993277E+00   0.1000000000E-01  -0.4996391010E-02  -0.4996391010E-02   0.5000000000E-01  -0.2480428132E-01  -0.2480428132E-01   0.0000000000E+00   0.0000000000E+00   0.0000000000E+00   0.0000000000E+00   0.0000000000E+00   0.0000000000E+00   0.1195966000E+01   0.1152985292E-11   0.1153039929E-11  -0.9033214158E-16  -0.4999999434E-16   0.5216272318E-16
   0.0000000000E+00   0.9701993277E+00   0.9701993277E+00   0.0000000000E+00  -0.4996391010E-02  -0.4996391010E-02   0.0000000000E+00  -0.2480428132E-01  -0.2480428132E-01   0.0000000000E+00   0.0000000000E+00   0.0000000000E+00   0.0000000000E+00   0.0000000000E+00   0.0000000000E+00   0.1195966001E+01   0.1147826444E-11   0.1147819121E-11   0.6477631020E-16   0.1959045146E-16   0.1026687915E-15
   0.2120000000E+01   0.0000000000E+00   0.1210424915E-16   0.2000000000E-01   0.0000000000E+00   0.1896870247E-16   0.1000000000E+00   0.0000000000E+00  -0.6864453327E-17   0.0000000000E+00   0.0000000000E+00   0.0000000000E+00   0.0000000000E+00   0.0000000000E+00   0.0000000000E+00   0.1195966001E+01   0.1151227775E-11   0.1151235101E-11  -0.3202719600E-16   0.3180873842E-15  -0.2932490242E-16
   0.2120000000E+01   0.9701993277E+00   0.6893820312E-17   0.2000000000E-01  -0.4996391010E-02   0.2007380619E-16   0.1000000000E+00  -0.2480428132E-01  -0.1317998588E-16   0.0000000000E+00   0.0000000000E+00   0.0000000000E+00   0.0000000000E+00   0.0000000000E+00   0.0000000000E+00   0.1195966001E+01   0.1156027919E-11   0.1156115284E-11  -0.5155701562E-16  -0.1524498730E-15  -0.4476487302E-16
   0.2120000000E+01   0.0000000000E+00   0.9701993277E+00   0.2000000000E-01   0.0000000000E+00  -0.4996391010E-02   0.1000000000E+00   0.0000000000E+00  -0.2480428132E-01   0.0000000000E+00   0.0000000000E+00   0.0000000000E+00   0.0000000000E+00   0.0000000000E+00   0.0000000000E+00   0.1195966001E+01   0.1158309467E-11   0.1158207444E-11  -0.3026142813E-16  -0.8475589504E-16   0.8679806583E-16