 VARIABLES = X,Y,Z,S11,S22,S33,S12,S13,S23,SMISES,P1,P2,P3
 ZONE, T="0.2500D+00" F=FEPOINT, I= 4104 J= 3075 ET=BRICK
   0.8471462860E+00   0.8707208601E+00   0.2495645266E-02   0.1370266060E+01   0.8848226155E-01   0.3039067896E-01  -0.1966465445E+00  -0.1551469865E+00   0.8338133757E-02   0.1363580396E+01   0.1407981045E+01   0.4566053883E-01   0.3549741639E-01
   0.6434006090E+00   0.9680285580E+00   0.6513915780E-02   0.1779018213E+01   0.3550814872E+00   0.1160237843E+00  -0.6482608223E-01  -0.8858977370E-01  -0.9747897765E-01   0.1579574850E+01   0.1787672895E+01   0.3932357710E+00   0.6921481850E-01
   0.5853871000E+00   0.8393649423E+00   0.1059558613E-01   0.2185533702E+01   0.6836691642E+00   0.2230909830E+00  -0.2697534140E+00  -0.2423346567E+00  -0.4645897282E-01   0.1866554094E+01   0.2246400277E+01   0.6592752469E+00   0.1866183246E+00
   0.7636972755E+00   0.7493738788E+00   0.4813602215E-02   0.1646537534E+01   0.4258101007E+00   0.1898003828E+00  -0.2965744934E+00  -0.2576054365E+00   0.6303992000E-01   0.1510725141E+01   0.1755348744E+01   0.3604250713E+00   0.1463742027E+00
   0.8493456016E+00   0.8706305080E+00   0.1979681366E+00   0.1264265863E+01   0.8008627300E-01  -0.2584634945E-01  -0.2776108335E+00  -0.1018413059E+00   0.1552145367E-01   0.1331866618E+01   0.1328560805E+01   0.1559130086E-02  -0.1161414864E-01
   0.6456698899E+00   0.9695843058E+00   0.2003422867E+00   0.1560243056E+01   0.1096682104E+00  -0.1122161825E+00  -0.1808371588E+00  -0.6748029283E-01  -0.4706960358E-01   0.1609826626E+01   0.1584548133E+01   0.1087170431E+00  -0.1355700927E+00
   0.5875968336E+00   0.8416689290E+00   0.2027063864E+00   0.2643794709E+01   0.1068749887E+01   0.6438555990E+00  -0.3781431112E+00  -0.1651130100E+00  -0.1335138202E-01   0.1946386929E+01   0.2732481385E+01   0.9977599392E+00   0.6261588710E+00
   0.7657972269E+00   0.7498321141E+00   0.1992919038E+00   0.1694210935E+01   0.5335219043E+00   0.2700528966E+00  -0.3734840760E+00  -0.1777711109E+00   0.6041257488E-01   0.1492780971E+01   0.1823293589E+01   0.4249874280E+00   0.2495047193E+00
   0.4161406021E+00   0.1025147479E+01   0.8693558410E-02   0.1677730668E+01   0.1504914944E+00  -0.1451921987E+00   0.1293901173E-01  -0.6059914764E-01  -0.1313948198E+00   0.1720212776E+01   0.1681804803E+01   0.2045849704E+00  -0.2033598099E+00
   0.3904898586E+00   0.8981932593E+00   0.1429917826E-01   0.2803129191E+01   0.1005584750E+01   0.4561296118E+00  -0.1750863735E+00  -0.1615390232E+00  -0.2275506559E+00   0.2182915695E+01   0.2820373769E+01   0.1080186901E+01   0.3642828825E+00
   0.4176610524E+00   0.1028242497E+01   0.2017435547E+00   0.1439756275E+01  -0.2629699811E+00  -0.4884018810E+00  -0.7859663836E-01  -0.4604917368E-01  -0.6831433919E-01   0.1837890356E+01   0.1444888504E+01  -0.2421541470E+00  -0.5143499437E+00
   0.3920054956E+00   0.9020211124E+00   0.2048625092E+00   0.3457486533E+01   0.1450635751E+01   0.1000569883E+01  -0.2583579429E+00  -0.1063888204E+00  -0.1091573570E+00   0.2311116389E+01   0.3485720121E+01   0.1456005849E+01   0.9669661971E+00
   0.1866320646E+00   0.1053597791E+01   0.9881743806E-02   0.1847576772E+01   0.2632292775E+00  -0.8064717371E-01  -0.4159158751E-02  -0.1749839679E-01  -0.1376210192E+00   0.1807246426E+01   0.1852647038E+01   0.3159577188E+00  -0.1384458810E+00
   0.1900495557E+00   0.9244377272E+00   0.1572488952E-01   0.2944280266E+01   0.9655882165E+00   0.4153327595E+00  -0.5889104670E-01  -0.2247601058E-01  -0.2413960368E+00   0.2342335748E+01   0.2948407801E+01   0.1051135983E+01   0.3256574575E+00
   0.1869058016E+00   0.1057366058E+01   0.2024353236E+00   0.1678428566E+01  -0.1479361258E+00  -0.3896466268E+00  -0.1716800828E-01  -0.1059402324E-01  -0.7089813444E-01   0.1965877521E+01   0.1680608516E+01  -0.1226409495E+00  -0.4171217538E+00
   0.1903360604E+00   0.9289608252E+00   0.2057177988E+00   0.3707224125E+01   0.1451056614E+01   0.1029463362E+01  -0.7322618447E-01  -0.1864519856E-01  -0.1201703928E+00   0.2501025184E+01   0.3707311418E+01   0.1484638584E+01   0.9957940993E+00
  -0.4865867892E-01   0.1053060487E+01   0.8896320043E-02   0.1832818011E+01   0.2192623705E+00  -0.5254622548E-01  -0.1416446920E-01   0.5444408407E-01  -0.1277304327E+00   0.1788076704E+01   0.1836563892E+01   0.2767769151E+00  -0.1138066507E+00
  -0.1515233921E-01   0.9189232000E+00   0.1492727144E-01   0.2787125318E+01   0.8011033121E+00   0.3079016817E+00   0.6767190028E-01   0.7953111323E-01  -0.2216378082E+00   0.2305259545E+01   0.2789515784E+01   0.8816155491E+00   0.2249989781E+00
  -0.4968094957E-01   0.1056517191E+01   0.2018460551E+00   0.1609654111E+01  -0.2039904844E+00  -0.3917822400E+00   0.4483404510E-01   0.3728326359E-01  -0.6524258465E-01   0.1920035958E+01   0.1610741950E+01  -0.1757025267E+00  -0.4211580370E+00
  -0.1618692472E-01   0.9231741085E+00   0.2052772941E+00   0.3481420520E+01   0.1257081885E+01   0.8716891876E+00   0.1285187109E+00   0.5478188259E-01  -0.1113853963E+00   0.2453503132E+01   0.3486330245E+01   0.1283869478E+01   0.8399918706E+00
  -0.2884245270E+00   0.1023325587E+01   0.6394619356E-02   0.1728361791E+01   0.1975073027E+00   0.3227398737E-01   0.2545887357E-01   0.8522204923E-01  -0.1446122322E+00   0.1630805866E+01   0.1725989920E+01   0.2596845709E+00  -0.2753140900E-01
  -0.2281293283E+00   0.8769754327E+00   0.1253297700E-01   0.2623536238E+01   0.8465268435E+00   0.3887121691E+00   0.2113590874E+00   0.1901456210E+00  -0.1488048576E+00   0.2109494448E+01   0.2655389192E+01   0.8969485873E+00   0.3064374716E+00
  -0.2903759898E+00   0.1025584320E+01   0.2003385159E+00   0.1329983797E+01  -0.2892631967E+00  -0.4170512607E+00   0.1485456941E+00   0.5781287537E-01  -0.7418140464E-01   0.1703735107E+01   0.1339742557E+01  -0.2696915292E+00  -0.4463816881E+00
  -0.2301352514E+00   0.8800622302E+00   0.2038081454E+00   0.3097067864E+01   0.1229427957E+01   0.8207338680E+00   0.3080523732E+00   0.1282420659E+00  -0.6698117521E-01   0.2174127304E+01   0.3147193892E+01   0.1213054595E+01   0.7869812023E+00
   0.9546891658E+00   0.1014504835E+01   0.7451496954E-03   0.1299564384E+01  -0.1020214253E-01   0.5075244007E-01  -0.8432961779E-01  -0.1182645906E-01   0.7814644350E-02   0.1289754344E+01   0.1304487608E+01   0.6253731626E-01  -0.2691024231E-01
   0.6659157749E+00   0.1113087924E+01   0.3714704108E-02   0.1599813550E+01   0.2418448106E+00   0.1458257621E+00   0.1042882915E+00  -0.6137970407E-01  -0.8157044482E-01   0.1407937917E+01   0.1598609399E+01   0.2583015931E+00   0.1305731306E+00
   0.9563758123E+00   0.1014211277E+01   0.1969468364E+00   0.1105672528E+01  -0.1092831248E+00  -0.9218467744E-01  -0.1485864899E+00  -0.7733631250E-02   0.6281210952E-02   0.1231130637E+01   0.1121944585E+01  -0.8730727185E-01  -0.1304325867E+00
   0.6675374102E+00   0.1114446305E+01   0.1987158470E+00   0.1327483772E+01  -0.3393071168E-01  -0.1245940145E+00  -0.1068117123E-01  -0.3737822175E-01  -0.4310996649E-01   0.1399932535E+01   0.1321199934E+01  -0.2546892050E-01  -0.1267719672E+00
   0.4188144068E+00   0.1165653596E+01   0.5565825531E-02   0.1763956422E+01   0.4148962979E+00   0.1988307188E+00   0.1044788124E+00  -0.3135614005E-01  -0.2456424042E-01   0.1479949911E+01   0.1773569041E+01   0.4042563258E+00   0.1998580717E+00
   0.4198833505E+00   0.1168260445E+01   0.1998126413E+00   0.1574146838E+01   0.1096520008E+00  -0.4622498302E-01   0.2720678366E-01  -0.2155181799E-01  -0.1152368829E-01   0.1549604308E+01   0.1574850701E+01   0.1134780194E+00  -0.5075486481E-01
   0.1860515488E+00   0.1192966895E+01   0.6237167250E-02   0.1789994398E+01   0.4534102111E+00   0.1908459697E+00   0.1745642139E-01  -0.3212161194E-02  -0.2653200210E-01   0.1485166425E+01   0.1791580342E+01   0.4480636807E+00   0.1946065556E+00
   0.1862715738E+00   0.1196044316E+01   0.2002110631E+00   0.1627368226E+01   0.1216465144E+00  -0.5594155397E-01   0.5959643182E-02  -0.1737817692E-02  -0.9151215110E-02   0.1604181215E+01   0.1628728461E+01   0.1233703639E+00  -0.5902563858E-01
  -0.4560745164E-01   0.1200693571E+01   0.5377247041E-02   0.1738445532E+01   0.3774878539E+00   0.1782608403E+00  -0.6703751793E-01   0.4429136771E-01  -0.8572315948E-02   0.1477361242E+01   0.1744740200E+01   0.3707192002E+00   0.1787348254E+00
  -0.4623488848E-01   0.1203541625E+01   0.1996999183E+00   0.1527377129E+01   0.2656247662E-01  -0.1011128654E+00  -0.1982571174E-01   0.2921535700E-01   0.2342723324E-02   0.1572195054E+01   0.1529665208E+01   0.2976937123E-01  -0.1066078391E+00
  -0.2822791486E+00   0.1191936739E+01   0.3431749129E-02   0.1647081121E+01   0.2409519512E+00   0.1817346870E+00  -0.1016636477E+00   0.1669288436E-01   0.1555517384E-01   0.1444343305E+01   0.1654200785E+01   0.2382090051E+00   0.1773579698E+00
  -0.2834506804E+00   0.1193955009E+01   0.1985544784E+00   0.1228536341E+01  -0.2240758760E+00  -0.2546610805E+00  -0.1273868570E-02   0.1050000305E-01   0.1356603110E-01   0.1470537066E+01   0.1230188971E+01  -0.2161605498E+00  -0.2642290373E+00
  -0.5697674262E-01   0.1365566157E+01   0.3062876395E-02   0.1496208565E+01   0.2819001938E+00   0.1483657933E+00  -0.1049460155E+00   0.1522773031E-01   0.1946677442E-01   0.1299629913E+01   0.1505300765E+01   0.2778284000E+00   0.1433453872E+00
  -0.2884127939E+00   0.1368069636E+01   0.2089508335E-02   0.1461763075E+01   0.1830677935E+00   0.1398194582E+00  -0.1697154570E+00   0.4850156159E-02   0.3208917980E-01   0.1332366843E+01   0.1482410372E+01   0.1754326471E+00   0.1268073075E+00
  -0.5733859200E-01   0.1367905533E+01   0.1982945459E+00   0.1307600803E+01   0.6747890444E-02  -0.7748419630E-01  -0.7431819277E-01   0.1008249882E-01   0.2475069957E-01   0.1352610117E+01   0.1312178985E+01   0.1176693160E-01  -0.8708141971E-01
  -0.2890882160E+00   0.1369818367E+01   0.1977265666E+00   0.1241878706E+01  -0.7753300894E-01  -0.9367191275E-01  -0.1071890455E+00   0.1660639285E-02   0.2730297224E-01   0.1337996784E+01   0.1248279760E+01  -0.6750305799E-01  -0.1101029181E+00
  -0.7028853800E-01   0.1541934088E+01   0.1302024994E-02   0.1260344306E+01   0.1403829237E+00   0.7116399786E-01  -0.1009613840E+00   0.9789355049E-02   0.2369565628E-01   0.1169330409E+01   0.1269402099E+01   0.1332047765E+00   0.6928435203E-01
  -0.2996603568E+00   0.1547798624E+01   0.7945378433E-03   0.1248873523E+01   0.7676937463E-01   0.6436969571E-01  -0.1674628853E+00   0.3819127193E-02   0.1790626701E-01   0.1213057210E+01   0.1272151378E+01   0.7074199737E-01   0.4711921802E-01
  -0.7045029684E-01   0.1543958371E+01   0.1972493784E+00   0.1188646178E+01   0.2821561483E-01  -0.1651156273E-01  -0.7635044136E-01   0.5567375731E-02   0.2584155989E-01   0.1192677597E+01   0.1194210396E+01   0.3358917157E-01  -0.2744933751E-01
  -0.2999574758E+00   0.1549362612E+01   0.1969591492E+00   0.1134277181E+01  -0.5486445674E-01  -0.5461896734E-01  -0.1162358789E+00   0.2556183628E-03   0.1837739061E-01   0.1206986944E+01   0.1145909596E+01  -0.4465210011E-01  -0.7646373963E-01
  -0.7967065974E-01   0.1724704229E+01  -0.4692362203E-03   0.1112601274E+01   0.7661950029E-01   0.7416974221E-01  -0.7454130909E-01   0.5122325938E-02  -0.8051640807E-02   0.1046081666E+01   0.1118493650E+01   0.8574657820E-01   0.5915028874E-01
  -0.3080125001E+00   0.1730050010E+01  -0.5732210576E-03   0.1107587929E+01   0.2567048753E-01   0.5342302670E-01  -0.1279604642E+00   0.4273191023E-03  -0.3198237463E-02   0.1091618397E+01   0.1122880881E+01   0.5489754134E-01   0.8903021262E-02
  -0.7967722678E-01   0.1726609421E+01   0.1961789163E+00   0.1107627669E+01   0.6769316234E-01   0.7187740486E-01  -0.5745419295E-01   0.1574557409E-02   0.6009696598E-02   0.1043712691E+01   0.1111489394E+01   0.8007795572E-01   0.5563088628E-01
  -0.3080011337E+00   0.1731552806E+01   0.1961333803E+00   0.1084094339E+01   0.5713531442E-02   0.3523857455E-01  -0.9193990725E-01  -0.3092041962E-02   0.5063940089E-02   0.1076131651E+01   0.1092039039E+01   0.4018559019E-01  -0.7178184432E-02
  -0.8656653060E-01   0.1910259659E+01  -0.3011156204E-02   0.7692513577E+00  -0.1392778014E+00  -0.3660957033E-01  -0.4837585614E-01  -0.1247316743E-01  -0.3673083059E-01   0.8676727753E+00   0.7726292531E+00  -0.2713290346E-01  -0.1521323636E+00
  -0.3136549060E+00   0.1913895695E+01  -0.2502203722E-02   0.8473085645E+00  -0.1307345516E+00  -0.2721851411E-01  -0.8265269170E-01  -0.2957326242E-01  -0.2437946439E-01   0.9423245507E+00   0.8546290402E+00  -0.2262584347E-01  -0.1426476979E+00
  -0.8654738590E-01   0.1912174233E+01   0.1947042800E+00   0.6966855879E+00  -0.2050659848E+00  -0.1080431442E+00  -0.3694000715E-01  -0.1122879356E-01  -0.1108181894E-01   0.8607312957E+00   0.6990980436E+00  -0.1071303962E+00  -0.2083911885E+00
  -0.3135897324E+00   0.1915424802E+01   0.1950088613E+00   0.7883623347E+00  -0.1791106571E+00  -0.8223693807E-01  -0.5785537084E-01  -0.2493440336E-01  -0.7389972138E-02   0.9289711415E+00   0.7923529492E+00  -0.8169570907E-01  -0.1836425006E+00
   0.1741891608E+00   0.1355847708E+01   0.3438745196E-02   0.1484242599E+01   0.3098206082E+00   0.1373080022E+00   0.2310960757E-02  -0.1900087229E-02   0.6061018554E-02   0.1271065948E+01   0.1484806863E+01   0.3143697475E+00   0.1321945994E+00
   0.1743200073E+00   0.1358372906E+01   0.1985253574E+00   0.1260971790E+01  -0.1563589029E-01  -0.1324774419E+00  -0.4358858118E-02  -0.1300727318E-02   0.1694234101E-01   0.1341169098E+01   0.1261879946E+01  -0.1027246593E-01  -0.1387490225E+00
   0.1604551925E+00   0.1533664270E+01   0.1535833360E-02   0.1282750519E+01   0.1889887568E+00   0.9224373044E-01   0.9980070600E-02  -0.1531914558E-02   0.2896418686E-01   0.1145460964E+01   0.1283023352E+01   0.1914591098E+00   0.8950054511E-01
   0.1605177894E+00   0.1535843525E+01   0.1973834611E+00   0.1193478175E+01   0.5164788413E-01  -0.1593601491E-01   0.5564783691E-02  -0.7378055982E-03   0.2924423156E-01   0.1179120050E+01   0.1194010330E+01   0.6459347638E-01  -0.2941376232E-01
   0.1501275884E+00   0.1719686022E+01  -0.3607793904E-03   0.1120015524E+01   0.1058287698E+00   0.8553750795E-01   0.6143412151E-02  -0.1311110828E-02  -0.8525486936E-02   0.1025796421E+01   0.1120834513E+01   0.1145335290E+00   0.7601375994E-01
   0.1501356031E+00   0.1721728611E+01   0.1962368503E+00   0.1113779991E+01   0.9197632771E-01   0.8079253712E-01   0.3593118761E-02  -0.5751364412E-03   0.6885864446E-02   0.1028816126E+01   0.1114651857E+01   0.9463444131E-01   0.7726255657E-01
   0.1421244995E+00   0.1909147242E+01  -0.3136394366E-02   0.7529861943E+00  -0.1261788071E+00  -0.3016536017E-01   0.3638248842E-03   0.7076762009E-03  -0.3909803799E-01   0.8378866487E+00   0.7543836922E+00  -0.2440896803E-01  -0.1333326972E+00
   0.1421163338E+00   0.1911192654E+01   0.1946261597E+00   0.6715192278E+00  -0.2033303074E+00  -0.1115069363E+00  -0.4821756349E-03   0.8189065117E-03  -0.1162769569E-01   0.8339833587E+00   0.6727261256E+00  -0.1117784268E+00  -0.2042657146E+00
   0.4080454656E+00   0.1336002597E+01   0.2938792264E-02   0.1493067290E+01   0.3060009757E+00   0.1676481163E+00   0.1157942584E+00  -0.3256077735E-01  -0.2314603771E-02   0.1282675880E+01   0.1507033585E+01   0.2986705428E+00   0.1610122544E+00
   0.4086704907E+00   0.1338210522E+01   0.1982196659E+00   0.1210629688E+01  -0.5078750445E-01  -0.1447658847E+00   0.6712578775E-01  -0.1982744780E-01   0.9401687950E-02   0.1319769540E+01   0.1216309786E+01  -0.4892703565E-01  -0.1523064517E+00
   0.3931586791E+00   0.1521681768E+01   0.1241166633E-02   0.1293057237E+01   0.1784197534E+00   0.1080550176E+00   0.1288400773E+00  -0.1754877874E-01   0.3042626245E-01   0.1172539337E+01   0.1307625093E+01   0.1665608955E+00   0.1053460195E+00
   0.3934463905E+00   0.1523637424E+01   0.1972066200E+00   0.1172918274E+01   0.2248023710E-01  -0.2357297602E-01   0.9330242076E-01  -0.9555791959E-02   0.2835738288E-01   0.1186427822E+01   0.1180590720E+01   0.2484356775E-01  -0.3360875355E-01
   0.3810436324E+00   0.1714814147E+01  -0.4434420388E-03   0.1121995348E+01   0.8961808552E-01   0.8318103039E-01   0.9183363633E-01  -0.1111172242E-01  -0.2858227793E-02   0.1048918674E+01   0.1130839171E+01   0.9626928830E-01   0.6768600474E-01
   0.3810706118E+00   0.1716675273E+01   0.1961932251E+00   0.1091060039E+01   0.5397573542E-01   0.5527394922E-01   0.6802699304E-01  -0.4707824778E-02   0.8467269824E-02   0.1044418649E+01   0.1096244569E+01   0.6501585059E-01   0.3904930376E-01
   0.3710996444E+00   0.1910909421E+01  -0.2960051364E-02   0.7995067515E+00  -0.1099883302E+00  -0.1223992217E-01   0.5427007796E-01   0.1241183374E-01  -0.2823986577E-01   0.8704834186E+00   0.8033296506E+00  -0.1003329988E-01  -0.1160178516E+00
   0.3710642079E+00   0.1912791834E+01   0.1947269521E+00   0.7220896887E+00  -0.1818581872E+00  -0.8758400937E-01   0.3937697300E-01   0.1191518533E-01  -0.7228981504E-02   0.8641245327E+00   0.7245741269E+00  -0.8700271995E-01  -0.1849239147E+00
   0.6504925792E+00   0.1305583027E+01   0.1451969111E-02   0.1369728057E+01   0.1212081705E+00   0.1091051974E+00   0.1510528308E+00  -0.2422217476E-01  -0.1214637222E-02   0.1283125026E+01   0.1388821251E+01   0.1241146636E+00   0.8710551008E-01
   0.6513969564E+00   0.1306952375E+01   0.1973727856E+00   0.1032383756E+01  -0.2279035217E+00  -0.2297329439E+00   0.7539404950E-01  -0.1224426954E-01   0.3527851558E-02   0.1270113483E+01   0.1038442789E+01  -0.2225816207E+00  -0.2411138782E+00
   0.6297221748E+00   0.1506672820E+01   0.5090925634E-03   0.1263165593E+01   0.9016661974E-01   0.9488330171E-01   0.1952426518E+00  -0.1122341484E-01   0.3240605331E-01   0.1215953765E+01   0.1292915787E+01   0.1012494612E+00   0.5405026644E-01
   0.6301352436E+00   0.1508031822E+01   0.1967917527E+00   0.1107917974E+01  -0.7377608850E-01  -0.5956843588E-01   0.1385901055E+00  -0.4550738995E-02   0.2451831183E-01   0.1197150863E+01   0.1122359507E+01  -0.5125106159E-01  -0.9653499632E-01
   0.6133079474E+00   0.1710380911E+01  -0.6445203091E-03   0.1103157015E+01   0.2312556064E-01   0.5480004347E-01   0.1442446202E+00  -0.8690152743E-02   0.3834677060E-02   0.1093869267E+01   0.1122335954E+01   0.5701535715E-01   0.1731307533E-02
   0.6133217671E+00   0.1711758450E+01   0.1960962848E+00   0.1038142644E+01  -0.3794699225E-01  -0.4631069836E-02   0.1039743505E+00  -0.1903618752E-02   0.8550728983E-02   0.1075743179E+01   0.1048434772E+01   0.6550552088E-03  -0.5352524544E-01
   0.6000161709E+00   0.1915188614E+01  -0.2446453664E-02   0.8894564780E+00  -0.9381317193E-01   0.5764116246E-02   0.9307261140E-01   0.2677830269E-01  -0.8127294065E-02   0.9504062661E+00   0.8979853295E+00   0.3926083780E-02  -0.1005039909E+00
   0.5999314423E+00   0.1916632731E+01   0.1950322725E+00   0.8329138506E+00  -0.1415165069E+00  -0.4576780009E-01   0.6589783862E-01   0.2360036978E-01   0.7806859095E-03   0.9373166160E+00   0.8374735731E+00  -0.4541310118E-01  -0.1464309284E+00
   0.9032050288E+00   0.1268705234E+01   0.6877357098E-03   0.1127230059E+01  -0.1583031973E+00  -0.9568870307E-01   0.9300403956E-01   0.4694532459E-01  -0.7784464662E-02   0.1262603659E+01   0.1132512786E+01  -0.1047191606E+00  -0.1545554664E+00
   0.9040919338E+00   0.1268998637E+01   0.1969636571E+00   0.1151028871E+01  -0.9237310337E-01  -0.5648952679E-01   0.2842926121E-01   0.2916591459E-01  -0.3808181190E-02   0.1225370796E+01   0.1150807600E+01  -0.6144954830E-01  -0.8719181013E-01
   0.8663708348E+00   0.1491298492E+01   0.1002119892E-03   0.1157312567E+01  -0.5214982058E-01   0.2465152568E-02   0.1784244866E+00   0.1390486154E-01   0.5037361838E-02   0.1221380701E+01   0.1182176132E+01   0.2543227276E-02  -0.7709145958E-01
   0.8667599210E+00   0.1491888206E+01   0.1965801076E+00   0.1093945150E+01  -0.9284920463E-01  -0.4996688597E-01   0.1281682974E+00   0.9940641063E-02   0.3142808838E-02   0.1184615788E+01   0.1106188956E+01  -0.4916985349E-01  -0.1058900422E+00
   0.8418792650E+00   0.1706442192E+01  -0.5891291500E-03   0.1070229431E+01  -0.5386879252E-01   0.3266114289E-03   0.1451403135E+00   0.7845590963E-02   0.5127827935E-02   0.1126572488E+01   0.1088786238E+01   0.4488128130E-03  -0.7254780118E-01
   0.8418420709E+00   0.1707185555E+01   0.1961551901E+00   0.1043764559E+01  -0.6849560012E-01  -0.2018274219E-01   0.1046816557E+00   0.7712750231E-02   0.5754903935E-02   0.1104487024E+01   0.1053858735E+01  -0.1921509949E-01  -0.7955741898E-01
   0.8278179459E+00   0.1920931841E+01  -0.1553797642E-02   0.9872413711E+00  -0.7748510862E-01   0.6032384774E-02   0.1029329196E+00   0.3751182206E-01   0.3687199128E-02   0.1041282959E+01   0.9975182316E+00   0.4551890644E-02  -0.8628147494E-01
   0.8276680286E+00   0.1921770357E+01   0.1955676502E+00   0.9704062016E+00  -0.8432500352E-01  -0.5182127309E-02   0.7403028301E-01   0.3098548162E-01   0.4849474254E-02   0.1025927433E+01   0.9759040076E+00  -0.5051202624E-02  -0.8995373420E-01
   0.1072705686E+01   0.1707054962E+01  -0.2386722123E-03   0.1097365822E+01  -0.4526695787E-01  -0.2404409408E-02   0.1132711232E+00   0.1101493271E-01   0.4254986944E-02   0.1139175995E+01   0.1108819527E+01  -0.3807912103E-02  -0.5531716039E-01
   0.1055966827E+01   0.1927026054E+01  -0.4716570017E-03   0.1096591948E+01  -0.2793312729E-01   0.1719631915E-01   0.8525502484E-01   0.3536665328E-01   0.1207812980E-01   0.1113201767E+01   0.1103515976E+01   0.1763220164E-01  -0.3529303784E-01
   0.1072604851E+01   0.1707307061E+01   0.1963694105E+00   0.1071558460E+01  -0.6250151876E-01  -0.2460456892E-01   0.8287821027E-01   0.8783982825E-02   0.1209155511E-02   0.1125369837E+01   0.1077995776E+01  -0.2503050967E-01  -0.6851289414E-01
   0.1055769240E+01   0.1927340440E+01   0.1962113303E+00   0.1104535780E+01  -0.1670333472E-01   0.2784026027E-01   0.6145222157E-01   0.2871039632E-01   0.6806769788E-02   0.1105163845E+01   0.1108185639E+01   0.2848317198E-01  -0.2099610627E-01
   0.1301009755E+01   0.1710059776E+01   0.8508001776E-04   0.1101453476E+01  -0.4384760990E-01  -0.1855994755E-01   0.7455839992E-01   0.5949426521E-02   0.5624762441E-03   0.1140296466E+01   0.1106295110E+01  -0.1616778231E-01  -0.5108140884E-01
   0.1283430962E+01   0.1932655754E+01   0.4551054317E-03   0.1173354001E+01   0.1317156144E-01   0.1830737615E-01   0.6032763597E-01   0.2388371425E-01   0.1663558649E-01   0.1162723065E+01   0.1176730867E+01   0.2246485878E-01   0.5637213053E-02
   0.1300887049E+01   0.1709933514E+01   0.1965642266E+00   0.1087429313E+01  -0.5814621404E-01  -0.3414249083E-01   0.5180392867E-01   0.5003947772E-02  -0.1026601854E-02   0.1137394168E+01   0.1089822065E+01  -0.3326134770E-01  -0.6142010947E-01
   0.1283236817E+01   0.1932536695E+01   0.1967622347E+00   0.1207427459E+01   0.4157476575E-01   0.5065792962E-01   0.4187034081E-01   0.1987825653E-01   0.9403108626E-02   0.1163833833E+01   0.1209120015E+01   0.5059554924E-01   0.3994459015E-01
   0.1527025707E+01   0.1713912983E+01   0.3339326613E-03   0.1105183243E+01  -0.3194119928E-01  -0.2492452257E-01   0.3797376615E-01   0.3615444052E-02   0.8441622558E-03   0.1135609027E+01   0.1106428882E+01  -0.1874407622E-01  -0.3936728486E-01
   0.1509977850E+01   0.1937506101E+01   0.1091755024E-02   0.1214474916E+01   0.4009315833E-01   0.1398518225E-01   0.3781299195E-01   0.1311334585E-01   0.1647648339E-01   0.1189794330E+01   0.1215889739E+01   0.3999539837E-01   0.1266811857E-01
   0.1526925606E+01   0.1713529954E+01   0.1967148814E+00   0.1102685774E+01  -0.4069479929E-01  -0.3259250429E-01   0.2394137665E-01   0.2807829256E-02  -0.1518997526E-02   0.1140168957E+01   0.1103217272E+01  -0.3168490836E-01  -0.4213389381E-01
   0.1509829763E+01   0.1937089709E+01   0.1971455906E+00   0.1256987100E+01   0.7149307215E-01   0.5149925318E-01   0.2662763241E-01   0.1131043376E-01   0.8342858277E-02   0.1196708753E+01   0.1257750602E+01   0.6896050629E-01   0.5326831656E-01
   0.1751463114E+01   0.1717673421E+01   0.4874000484E-03   0.1107873107E+01  -0.1155314016E-01  -0.2251276545E-01   0.7576618872E-02   0.1176409955E-02   0.1573560020E-02   0.1125035352E+01   0.1107872229E+01  -0.6306838445E-02  -0.2775818873E-01
   0.1735746197E+01   0.1941467759E+01   0.1443442104E-02   0.1230124539E+01   0.6084735034E-01   0.1165323660E-01   0.1871163870E-01   0.4544081481E-02   0.1527123740E-01   0.1195290446E+01   0.1230539471E+01   0.6263931367E-01   0.9446341477E-02
   0.1751411822E+01   0.1717151494E+01   0.1968046013E+00   0.1108344118E+01  -0.2041933389E-01  -0.2860843366E-01   0.7344539559E-03   0.7596920608E-03  -0.1682433103E-02   0.1132879687E+01   0.1108328864E+01  -0.1777255069E-01  -0.3123996304E-01
   0.1735666696E+01   0.1940890189E+01   0.1973587080E+00   0.1271339093E+01   0.8885415262E-01   0.4643627904E-01   0.1360716771E-01   0.4260150953E-02   0.6711305947E-02   0.1204557376E+01   0.1271574788E+01   0.8927495535E-01   0.4577978126E-01
   0.1974935534E+01   0.1720969884E+01   0.5268977532E-03   0.1103556280E+01   0.7782924866E-02  -0.1734246763E-01  -0.1324023710E-01  -0.9530323400E-03   0.2891821288E-02   0.1108843755E+01   0.1103717014E+01   0.1019172175E-01  -0.1991199796E-01
   0.1960932703E+01   0.1944570627E+01   0.1535605756E-02   0.1223147900E+01   0.7260533493E-01   0.9567985991E-02   0.4929767546E-02  -0.2014796782E-02   0.1320144949E-01   0.1183438030E+01   0.1223190069E+01   0.7417911438E-01   0.7952038091E-02
   0.1974941343E+01   0.1720397036E+01   0.1968253975E+00   0.1104078117E+01  -0.1222502298E-02  -0.2309319769E-01  -0.1490880607E-01  -0.7762951999E-03  -0.1238574928E-02   0.1116728968E+01   0.1104293255E+01   0.1867549849E-03  -0.2471759276E-01
   0.1960925535E+01   0.1943938883E+01   0.1974165867E+00   0.1256546097E+01   0.9365651615E-01   0.3672358948E-01   0.4270698211E-02  -0.1000649077E-02   0.4930673662E-02   0.1192352037E+01   0.1256552736E+01   0.9381939925E-01   0.3655406811E-01
   0.2197828870E+01   0.1723722467E+01   0.4647258252E-03   0.1093755975E+01   0.2395867053E-01  -0.1045452272E-01  -0.2531103215E-01  -0.2231280382E-02   0.3938644218E-02   0.1088394717E+01   0.1094400128E+01   0.2468394475E-01  -0.1182394917E-01
   0.2185680831E+01   0.1946923499E+01   0.1428514627E-02   0.1201292491E+01   0.7727748635E-01   0.8560557788E-02  -0.3680250477E-02  -0.5873919718E-02   0.1108189259E-01   0.1159901075E+01   0.1201252755E+01   0.7871317626E-01   0.7164603937E-02
   0.2197885262E+01   0.1723158761E+01   0.1967847901E+00   0.1090822295E+01   0.1337329539E-01  -0.1815900379E-01  -0.2361845438E-01  -0.1646187312E-02  -0.7032753293E-03   0.1094385524E+01   0.1091381193E+01   0.1362455611E-01  -0.1896916242E-01
   0.2185735232E+01   0.1946311042E+01   0.1973543635E+00   0.1224119638E+01   0.9062393134E-01   0.2652585555E-01  -0.1549483579E-02  -0.4136304028E-02   0.3451141314E-02   0.1166737256E+01   0.1224047496E+01   0.9098885690E-01   0.2623307214E-01
   0.2420352427E+01   0.1725972886E+01   0.3325632010E-03   0.1079488227E+01   0.3547763653E-01  -0.3877593239E-02  -0.3032163522E-01  -0.2692989923E-02   0.4533403970E-02   0.1065655349E+01   0.1080439974E+01   0.3540138166E-01  -0.4753085355E-02
   0.2410078480E+01   0.1948661150E+01   0.1196678602E-02   0.1171483165E+01   0.7704530675E-01   0.8522327223E-02  -0.8111259543E-02  -0.7453199745E-02   0.9106802232E-02   0.1130266271E+01   0.1171451815E+01   0.7815890014E-01   0.7440084624E-02
   0.2420444123E+01   0.1725453005E+01   0.1967024750E+00   0.1072332860E+01   0.2357552016E-01  -0.1378816976E-01  -0.2684592013E-01  -0.1876371383E-02  -0.2385888665E-03   0.1069024369E+01   0.1073077411E+01   0.2330337196E-01  -0.1426057254E-01
   0.2410175267E+01   0.1948109527E+01   0.1972164802E+00   0.1183425403E+01   0.8326878785E-01   0.1757658563E-01  -0.4615541818E-02  -0.5444625023E-02   0.2315364092E-02   0.1134291753E+01   0.1183340771E+01   0.8355657450E-01   0.1737343040E-01
   0.2642614576E+01   0.1727802600E+01   0.1643497469E-03   0.1062793690E+01   0.4263300693E-01   0.1536456661E-02  -0.3025910464E-01  -0.2627736453E-02   0.4672786608E-02   0.1042759084E+01   0.1063762497E+01   0.4229420556E-01   0.9064509299E-03
   0.2634178127E+01   0.1949914549E+01   0.9083696687E-03   0.1139116060E+01   0.7378281006E-01   0.8921622550E-02  -0.9568478391E-02  -0.7439113810E-02   0.7402152520E-02   0.1099226239E+01   0.1139103362E+01   0.7462096152E-01   0.8096169234E-02
   0.2642723210E+01   0.1727341400E+01   0.1965990548E+00   0.1051713259E+01   0.2989632765E-01  -0.1026965258E-01  -0.2616861625E-01  -0.1733024700E-02   0.8015106110E-04   0.1043545492E+01   0.1052439702E+01   0.2943363285E-01  -0.1053340150E-01
   0.2634295575E+01   0.1949440029E+01   0.1970440260E+00   0.1141677374E+01   0.7439422106E-01   0.1064174075E-01  -0.5740520085E-02  -0.5480104903E-02   0.1514313947E-02   0.1100430894E+01   0.1141605524E+01   0.7462199900E-01   0.1048581280E-01
   0.2864667322E+01   0.1729284978E+01  -0.9754328806E-05   0.1045765693E+01   0.4633553750E-01   0.5472133153E-02  -0.2681901325E-01  -0.2256194911E-02   0.4500448796E-02   0.1021633475E+01   0.1046541339E+01   0.4606296767E-01   0.4969057066E-02
   0.2858011154E+01   0.1950796324E+01   0.6171708477E-03   0.1108273173E+01   0.6910610121E-01   0.9376042151E-02  -0.9080961858E-02  -0.6489387854E-02   0.6001259668E-02   0.1070314467E+01   0.1108271075E+01   0.6971448174E-01   0.8769759645E-02
   0.2864775440E+01   0.1728883540E+01   0.1964927313E+00   0.1031759843E+01   0.3341869069E-01  -0.7519081438E-02  -0.2290722165E-01  -0.1399809579E-02   0.2590845548E-03   0.1020262182E+01   0.1032329874E+01   0.3301188519E-01  -0.7682306351E-02
   0.2858129121E+01   0.1950398014E+01   0.1968693975E+00   0.1103631266E+01   0.6575502936E-01   0.5685666112E-02  -0.5574129256E-02  -0.4770296474E-02   0.9756304947E-03   0.1069097210E+01   0.1103580604E+01   0.6590573239E-01   0.5585626046E-02