 VARIABLES = X,Y,DU1,DU2,U1,U2,S11,S22,S12
 ZONE, T="0.1000D+01" F=FEPOINT, I=    9 J=    8
   0.0000000000E+00   0.0000000000E+00   0.0000000000E+00   0.0000000000E+00   0.0000000000E+00   0.0000000000E+00   0.5491039695E+01   0.3569979878E+01   0.8590128611E+00
   0.2028725662E+01   0.1000000000E+00   0.2872566163E-01   0.1000000000E+00   0.0000000000E+00   0.0000000000E+00   0.1042950774E+01   0.2648601503E+01   0.5764561292E+00
   0.1979674550E+01   0.2100000000E+01  -0.2032545009E-01   0.1000000000E+00   0.0000000000E+00   0.0000000000E+00  -0.1907035391E+01  -0.5789335616E+00   0.1792002150E+01
   0.1021526923E+01   0.5208628536E-01   0.2152692269E-01   0.5208628536E-01   0.0000000000E+00   0.0000000000E+00   0.2424192379E+01   0.4059059298E-01   0.7216459977E+00
   0.2002228259E+01   0.1100000000E+01   0.2228259255E-02   0.1000000000E+00   0.0000000000E+00   0.0000000000E+00  -0.7491363681E+00  -0.1076268032E+01   0.1186657334E+01
   0.9951072982E+00   0.1037823767E+01  -0.4892701823E-02   0.3782376675E-01   0.0000000000E+00   0.0000000000E+00   0.1792002149E+01   0.1495523156E+01   0.1325507505E+01
   0.0000000000E+00   0.2000000000E+01   0.0000000000E+00   0.0000000000E+00   0.0000000000E+00   0.0000000000E+00  -0.8210959364E+01  -0.9787995288E+01   0.1519588936E+01
   0.9946868460E+00   0.2047740625E+01  -0.5313154016E-02   0.4774062528E-01   0.0000000000E+00   0.0000000000E+00  -0.4741903319E+01  -0.3072362424E+01   0.1653367345E+01
   0.0000000000E+00   0.1000000000E+01   0.0000000000E+00   0.0000000000E+00   0.0000000000E+00   0.0000000000E+00  -0.5171569869E+00  -0.4030761376E-01   0.1185389395E+01
           1           4           6           6
           4           2           5           5
           5           3           6           6
           4           5           6           6
           1           6           9           9
           6           3           8           8
           8           7           9           9
           6           8           9           9
