 VARIABLES = X,Y,Z,DU1,DU2,DU3,U1,U2,U3,S11,S22,S33,S12,S13,S23,e11,e22,e33,e12,e13,e23
 ZONE, T="0.1000D+01" F=FEPOINT, I=   12 J=    2 ET=BRICK
   0.0000000000E+00   0.0000000000E+00   0.1641609201E-01   0.0000000000E+00   0.0000000000E+00   0.1641609201E-01   0.0000000000E+00   0.0000000000E+00   0.0000000000E+00   0.1333271727E+01   0.7036547372E+00   0.7406593590E-01   0.1203683914E+00  -0.1203567268E+00   0.3543211593E-11   0.0000000000E+00   0.0000000000E+00   0.0000000000E+00   0.0000000000E+00   0.0000000000E+00   0.0000000000E+00
   0.1009444292E+01   0.2777729245E-02   0.1363866270E-01   0.9444291627E-02   0.2777729245E-02   0.1363866270E-01   0.0000000000E+00   0.0000000000E+00   0.0000000000E+00   0.8333491473E+00  -0.1666541810E+00  -0.5555028472E-01   0.3703796580E-01  -0.3703130083E-01   0.7596302284E-12   0.0000000000E+00   0.0000000000E+00   0.0000000000E+00   0.0000000000E+00   0.0000000000E+00   0.0000000000E+00
   0.1009444292E+01   0.9972222708E+00   0.1363866270E-01   0.9444291627E-02  -0.2777729244E-02   0.1363866270E-01   0.0000000000E+00   0.0000000000E+00   0.0000000000E+00   0.8333491472E+00  -0.1666541810E+00  -0.5555028475E-01  -0.3703796579E-01  -0.3703130082E-01   0.7521627691E-12   0.0000000000E+00   0.0000000000E+00   0.0000000000E+00   0.0000000000E+00   0.0000000000E+00   0.0000000000E+00
   0.0000000000E+00   0.1000000000E+01   0.1641609201E-01   0.0000000000E+00   0.0000000000E+00   0.1641609201E-01   0.0000000000E+00   0.0000000000E+00   0.0000000000E+00   0.1333271726E+01   0.7036547371E+00   0.7406593587E-01  -0.1203683914E+00  -0.1203567268E+00   0.3543141403E-11   0.0000000000E+00   0.0000000000E+00   0.0000000000E+00   0.0000000000E+00   0.0000000000E+00   0.0000000000E+00
   0.0000000000E+00   0.0000000000E+00   0.1006972323E+01   0.0000000000E+00   0.0000000000E+00   0.6972322547E-02   0.0000000000E+00   0.0000000000E+00   0.0000000000E+00   0.1333271726E+01   0.7036547372E+00   0.7406593601E-01   0.1203683914E+00   0.1203567268E+00   0.2055298944E-11   0.0000000000E+00   0.0000000000E+00   0.0000000000E+00   0.0000000000E+00   0.0000000000E+00   0.0000000000E+00
   0.1009444292E+01   0.2777729244E-02   0.1009749752E+01   0.9444291627E-02   0.2777729244E-02   0.9749751852E-02   0.0000000000E+00   0.0000000000E+00   0.0000000000E+00   0.8333491471E+00  -0.1666541810E+00  -0.5555028477E-01   0.3703796579E-01   0.3703130082E-01  -0.7281707865E-12   0.0000000000E+00   0.0000000000E+00   0.0000000000E+00   0.0000000000E+00   0.0000000000E+00   0.0000000000E+00
   0.1009444292E+01   0.9972222708E+00   0.1009749752E+01   0.9444291627E-02  -0.2777729245E-02   0.9749751853E-02   0.0000000000E+00   0.0000000000E+00   0.0000000000E+00   0.8333491470E+00  -0.1666541810E+00  -0.5555028477E-01  -0.3703796580E-01   0.3703130083E-01  -0.7357044328E-12   0.0000000000E+00   0.0000000000E+00   0.0000000000E+00   0.0000000000E+00   0.0000000000E+00   0.0000000000E+00
   0.0000000000E+00   0.1000000000E+01   0.1006972323E+01   0.0000000000E+00   0.0000000000E+00   0.6972322547E-02   0.0000000000E+00   0.0000000000E+00   0.0000000000E+00   0.1333271726E+01   0.7036547372E+00   0.7406593606E-01  -0.1203683914E+00   0.1203567268E+00   0.2055306280E-11   0.0000000000E+00   0.0000000000E+00   0.0000000000E+00   0.0000000000E+00   0.0000000000E+00   0.0000000000E+00
   0.2018888983E+01   0.2222263336E-02   0.1419422857E-01   0.1888898313E-01   0.2222263336E-02   0.1419422857E-01   0.0000000000E+00   0.0000000000E+00   0.0000000000E+00   0.1000029985E+01   0.7406926051E-01   0.3703463352E-01  -0.4629245978E-01   0.4629412512E-01  -0.7500671280E-12   0.0000000000E+00   0.0000000000E+00   0.0000000000E+00   0.0000000000E+00   0.0000000000E+00   0.0000000000E+00
   0.2018888983E+01   0.9977777367E+00   0.1419422857E-01   0.1888898313E-01  -0.2222263335E-02   0.1419422857E-01   0.0000000000E+00   0.0000000000E+00   0.0000000000E+00   0.1000029985E+01   0.7406926055E-01   0.3703463356E-01   0.4629245978E-01   0.4629412511E-01  -0.7600497633E-12   0.0000000000E+00   0.0000000000E+00   0.0000000000E+00   0.0000000000E+00   0.0000000000E+00   0.0000000000E+00
   0.2018888983E+01   0.2222263335E-02   0.1009194186E+01   0.1888898313E-01   0.2222263335E-02   0.9194185987E-02   0.0000000000E+00   0.0000000000E+00   0.0000000000E+00   0.1000029985E+01   0.7406926053E-01   0.3703463355E-01  -0.4629245977E-01  -0.4629412512E-01  -0.2235921679E-11   0.0000000000E+00   0.0000000000E+00   0.0000000000E+00   0.0000000000E+00   0.0000000000E+00   0.0000000000E+00
   0.2018888983E+01   0.9977777367E+00   0.1009194186E+01   0.1888898313E-01  -0.2222263336E-02   0.9194185988E-02   0.0000000000E+00   0.0000000000E+00   0.0000000000E+00   0.1000029985E+01   0.7406926054E-01   0.3703463356E-01   0.4629245977E-01  -0.4629412511E-01  -0.2245898254E-11   0.0000000000E+00   0.0000000000E+00   0.0000000000E+00   0.0000000000E+00   0.0000000000E+00   0.0000000000E+00
     1     2     3     4     5     6     7     8
     2     9    10     3     6    11    12     7
