 VARIABLES = X,Y,Z
 ZONE, T="zone1" F=FEPOINT, I= 3642 J= 2725 ET=BRICK
  -0.1786834000E+01  -0.6499027010E+00   0.0000000000E+00
  -0.1793839450E+01  -0.4335708920E+00   0.0000000000E+00
  -0.2000000000E+01  -0.4321243760E+00   0.0000000000E+00
  -0.2000000000E+01  -0.6479408740E+00   0.0000000000E+00
  -0.1786834000E+01  -0.6499027010E+00   0.2000000030E+00
  -0.1793839450E+01  -0.4335708920E+00   0.2000000030E+00
  -0.2000000000E+01  -0.4321243760E+00   0.2000000030E+00
  -0.2000000000E+01  -0.6479408740E+00   0.2000000030E+00
  -0.1800147290E+01  -0.2210518720E+00   0.0000000000E+00
  -0.2000000000E+01  -0.2189777490E+00   0.0000000000E+00
  -0.1800147290E+01  -0.2210518720E+00   0.2000000030E+00
  -0.2000000000E+01  -0.2189777490E+00   0.2000000030E+00
  -0.1805068020E+01  -0.1227134800E-01   0.0000000000E+00
  -0.2000000000E+01  -0.1138231600E-01   0.0000000000E+00
  -0.1805068020E+01  -0.1227134800E-01   0.2000000030E+00
  -0.2000000000E+01  -0.1138231600E-01   0.2000000030E+00
  -0.1571754340E+01  -0.6536588670E+00   0.0000000000E+00
  -0.1586460230E+01  -0.4357475040E+00   0.0000000000E+00
  -0.1571754340E+01  -0.6536588670E+00   0.2000000030E+00
  -0.1586460230E+01  -0.4357475040E+00   0.2000000030E+00
  -0.1600926400E+01  -0.2214365300E+00   0.0000000000E+00
  -0.1600926400E+01  -0.2214365300E+00   0.2000000030E+00
  -0.1614288690E+01  -0.8632611000E-02   0.0000000000E+00
  -0.1614288690E+01  -0.8632611000E-02   0.2000000030E+00
  -0.1352244730E+01  -0.6605586410E+00   0.0000000000E+00
  -0.1377721070E+01  -0.4386225940E+00   0.0000000000E+00
  -0.1352244730E+01  -0.6605586410E+00   0.2000000030E+00
  -0.1377721070E+01  -0.4386225940E+00   0.2000000030E+00
  -0.1402516600E+01  -0.2227101920E+00   0.0000000000E+00
  -0.1402516600E+01  -0.2227101920E+00   0.2000000030E+00
  -0.1422636030E+01  -0.1019847800E-01   0.0000000000E+00
  -0.1422636030E+01  -0.1019847800E-01   0.2000000030E+00
  -0.1121900800E+01  -0.6714550260E+00   0.0000000000E+00
  -0.1169056420E+01  -0.4409270880E+00   0.0000000000E+00
  -0.1121900800E+01  -0.6714550260E+00   0.2000000030E+00
  -0.1169056420E+01  -0.4409270880E+00   0.2000000030E+00
  -0.1208571910E+01  -0.2226085070E+00   0.0000000000E+00
  -0.1208571910E+01  -0.2226085070E+00   0.2000000030E+00
  -0.1235236530E+01  -0.1172280300E-01   0.0000000000E+00
  -0.1235236530E+01  -0.1172280300E-01   0.2000000030E+00
  -0.8585886960E+00  -0.6869562860E+00   0.0000000000E+00
  -0.9678207640E+00  -0.4330474730E+00   0.0000000000E+00
  -0.8585886960E+00  -0.6869562860E+00   0.2000000030E+00
  -0.9678207640E+00  -0.4330474730E+00   0.2000000030E+00
  -0.1027478340E+01  -0.2150739730E+00   0.0000000000E+00
  -0.1027478340E+01  -0.2150739730E+00   0.2000000030E+00
  -0.1057732580E+01  -0.1226130900E-01   0.0000000000E+00
  -0.1057732580E+01  -0.1226130900E-01   0.2000000030E+00
  -0.8743820190E+00  -0.1984192880E+00   0.0000000000E+00
  -0.9021859170E+00  -0.5052542000E-02   0.0000000000E+00
  -0.8743820190E+00  -0.1984192880E+00   0.2000000030E+00
  -0.9021859170E+00  -0.5052542000E-02   0.2000000030E+00
  -0.7316873670E+00  -0.1647226660E+00   0.0000000000E+00
  -0.7500000000E+00   0.0000000000E+00   0.0000000000E+00
  -0.7316873670E+00  -0.1647226660E+00   0.2000000030E+00
  -0.7500000000E+00   0.0000000000E+00   0.2000000030E+00
  -0.8152028320E+00  -0.3940793870E+00   0.0000000000E+00
  -0.8152028320E+00  -0.3940793870E+00   0.2000000030E+00
  -0.6767698530E+00  -0.3232375980E+00   0.0000000000E+00
  -0.6767698530E+00  -0.3232375980E+00   0.2000000030E+00
  -0.7134780290E+00  -0.5641804930E+00   0.0000000000E+00
  -0.7134780290E+00  -0.5641804930E+00   0.2000000030E+00
  -0.5885382890E+00  -0.4648899440E+00   0.0000000000E+00
  -0.5885382890E+00  -0.4648899440E+00   0.2000000030E+00
  -0.5620479580E+00  -0.6959934230E+00   0.0000000000E+00
  -0.4695854780E+00  -0.5847986340E+00   0.0000000000E+00
  -0.5620479580E+00  -0.6959934230E+00   0.2000000030E+00
  -0.4695854780E+00  -0.5847986340E+00   0.2000000030E+00
  -0.3752646740E+00  -0.7922456260E+00   0.0000000000E+00
  -0.3239018920E+00  -0.6764522190E+00   0.0000000000E+00
  -0.3752646740E+00  -0.7922456260E+00   0.2000000030E+00
  -0.3239018920E+00  -0.6764522190E+00   0.2000000030E+00
  -0.1834379290E+00  -0.8541765810E+00   0.0000000000E+00
  -0.1612076610E+00  -0.7324698570E+00   0.0000000000E+00
  -0.1834379290E+00  -0.8541765810E+00   0.2000000030E+00
  -0.1612076610E+00  -0.7324698570E+00   0.2000000030E+00
   0.9093670000E-02  -0.8806914090E+00   0.0000000000E+00
   0.5982594000E-02  -0.7499761580E+00   0.0000000000E+00
   0.9093670000E-02  -0.8806914090E+00   0.2000000030E+00
   0.5982594000E-02  -0.7499761580E+00   0.2000000030E+00
  -0.6165446040E+00  -0.8323531150E+00   0.0000000000E+00
  -0.6165446040E+00  -0.8323531150E+00   0.2000000030E+00
  -0.4041968580E+00  -0.9266387220E+00   0.0000000000E+00
  -0.4041968580E+00  -0.9266387220E+00   0.2000000030E+00
  -0.1993465270E+00  -0.9882276650E+00   0.0000000000E+00
  -0.1993465270E+00  -0.9882276650E+00   0.2000000030E+00
   0.3726564000E-02  -0.1019770740E+01   0.0000000000E+00
   0.3726564000E-02  -0.1019770740E+01   0.2000000030E+00
  -0.2099822760E+00  -0.1145995620E+01   0.0000000000E+00
  -0.1099330000E-03  -0.1180279370E+01   0.0000000000E+00
  -0.2099822760E+00  -0.1145995620E+01   0.2000000030E+00
  -0.1099330000E-03  -0.1180279370E+01   0.2000000030E+00
  -0.2163828160E+00  -0.1318631290E+01   0.0000000000E+00
  -0.2460033000E-02  -0.1352934720E+01   0.0000000000E+00
  -0.2163828160E+00  -0.1318631290E+01   0.2000000030E+00
  -0.2460033000E-02  -0.1352934720E+01   0.2000000030E+00
  -0.2199201430E+00  -0.1499135380E+01   0.0000000000E+00
  -0.3797356000E-02  -0.1531663660E+01   0.0000000000E+00
  -0.2199201430E+00  -0.1499135380E+01   0.2000000030E+00
  -0.3797356000E-02  -0.1531663660E+01   0.2000000030E+00
  -0.2218250040E+00  -0.1683577540E+01   0.0000000000E+00
  -0.4592601000E-02  -0.1713205220E+01   0.0000000000E+00
  -0.2218250040E+00  -0.1683577540E+01   0.2000000030E+00
  -0.4592601000E-02  -0.1713205220E+01   0.2000000030E+00
  -0.2228845660E+00  -0.1869956490E+01   0.0000000000E+00
  -0.5121119000E-02  -0.1896035190E+01   0.0000000000E+00
  -0.2228845660E+00  -0.1869956490E+01   0.2000000030E+00
  -0.5121119000E-02  -0.1896035190E+01   0.2000000030E+00
  -0.2235322150E+00  -0.2057278160E+01   0.0000000000E+00
  -0.5517475000E-02  -0.2079436780E+01   0.0000000000E+00
  -0.2235322150E+00  -0.2057278160E+01   0.2000000030E+00
  -0.5517475000E-02  -0.2079436780E+01   0.2000000030E+00
  -0.2246214300E+00  -0.2244040010E+01   0.0000000000E+00
  -0.8374304000E-02  -0.2258945700E+01   0.0000000000E+00
  -0.2246214300E+00  -0.2244040010E+01   0.2000000030E+00
  -0.8374304000E-02  -0.2258945700E+01   0.2000000030E+00
  -0.2253361940E+00  -0.2431921960E+01   0.0000000000E+00
  -0.9420857000E-02  -0.2442813400E+01   0.0000000000E+00
  -0.2253361940E+00  -0.2431921960E+01   0.2000000030E+00
  -0.9420857000E-02  -0.2442813400E+01   0.2000000030E+00
  -0.2261570100E+00  -0.2620637660E+01   0.0000000000E+00
  -0.1039791900E-01  -0.2627923490E+01   0.0000000000E+00
  -0.2261570100E+00  -0.2620637660E+01   0.2000000030E+00
  -0.1039791900E-01  -0.2627923490E+01   0.2000000030E+00
  -0.2273804100E+00  -0.2810014250E+01   0.0000000000E+00
  -0.1180716200E-01  -0.2813688280E+01   0.0000000000E+00
  -0.2273804100E+00  -0.2810014250E+01   0.2000000030E+00
  -0.1180716200E-01  -0.2813688280E+01   0.2000000030E+00
  -0.2269707320E+00  -0.3000000000E+01   0.0000000000E+00
  -0.1142062700E-01  -0.3000000000E+01   0.0000000000E+00
  -0.2269707320E+00  -0.3000000000E+01   0.2000000030E+00
  -0.1142062700E-01  -0.3000000000E+01   0.2000000030E+00
  -0.4220034480E+00  -0.1091531630E+01   0.0000000000E+00
  -0.4220034480E+00  -0.1091531630E+01   0.2000000030E+00
  -0.4319120050E+00  -0.1271458510E+01   0.0000000000E+00
  -0.4319120050E+00  -0.1271458510E+01   0.2000000030E+00
  -0.4371593000E+00  -0.1458146210E+01   0.0000000000E+00
  -0.4371593000E+00  -0.1458146210E+01   0.2000000030E+00
  -0.4399605690E+00  -0.1648027180E+01   0.0000000000E+00
  -0.4399605690E+00  -0.1648027180E+01   0.2000000030E+00
  -0.4415467680E+00  -0.1839535240E+01   0.0000000000E+00
  -0.4415467680E+00  -0.1839535240E+01   0.2000000030E+00
  -0.4425469040E+00  -0.2031909470E+01   0.0000000000E+00
  -0.4425469040E+00  -0.2031909470E+01   0.2000000030E+00
  -0.4434285160E+00  -0.2224514010E+01   0.0000000000E+00
  -0.4434285160E+00  -0.2224514010E+01   0.2000000030E+00
  -0.4441356660E+00  -0.2417614460E+01   0.0000000000E+00
  -0.4441356660E+00  -0.2417614460E+01   0.2000000030E+00
  -0.4448732140E+00  -0.2611256120E+01   0.0000000000E+00
  -0.4448732140E+00  -0.2611256120E+01   0.2000000030E+00
  -0.4458054900E+00  -0.2805410860E+01   0.0000000000E+00
  -0.4458054900E+00  -0.2805410860E+01   0.2000000030E+00
  -0.4456812440E+00  -0.3000000000E+01   0.0000000000E+00
  -0.4456812440E+00  -0.3000000000E+01   0.2000000030E+00
  -0.6402032970E+00  -0.1020617370E+01   0.0000000000E+00
  -0.6402032970E+00  -0.1020617370E+01   0.2000000030E+00
  -0.6511085630E+00  -0.1216519830E+01   0.0000000000E+00
  -0.6511085630E+00  -0.1216519830E+01   0.2000000030E+00
  -0.6564447280E+00  -0.1413307190E+01   0.0000000000E+00
  -0.6564447280E+00  -0.1413307190E+01   0.2000000030E+00
  -0.6593370440E+00  -0.1610366340E+01   0.0000000000E+00
  -0.6593370440E+00  -0.1610366340E+01   0.2000000030E+00
  -0.6611258980E+00  -0.1807831650E+01   0.0000000000E+00
  -0.6611258980E+00  -0.1807831650E+01   0.2000000030E+00
  -0.6623836760E+00  -0.2005719660E+01   0.0000000000E+00
  -0.6623836760E+00  -0.2005719660E+01   0.2000000030E+00
  -0.6634089950E+00  -0.2203888180E+01   0.0000000000E+00
  -0.6634089950E+00  -0.2203888180E+01   0.2000000030E+00
  -0.6642726060E+00  -0.2402377130E+01   0.0000000000E+00
  -0.6642726060E+00  -0.2402377130E+01   0.2000000030E+00
  -0.6650688050E+00  -0.2601239920E+01   0.0000000000E+00
  -0.6650688050E+00  -0.2601239920E+01   0.2000000030E+00
  -0.6658623220E+00  -0.2800480130E+01   0.0000000000E+00
  -0.6658623220E+00  -0.2800480130E+01   0.2000000030E+00
  -0.6659765240E+00  -0.3000000000E+01   0.0000000000E+00
  -0.6659765240E+00  -0.3000000000E+01   0.2000000030E+00
  -0.8707099560E+00  -0.9427850840E+00   0.0000000000E+00
  -0.8707099560E+00  -0.9427850840E+00   0.2000000030E+00
  -0.8756929040E+00  -0.1161604170E+01   0.0000000000E+00
  -0.8756929040E+00  -0.1161604170E+01   0.2000000030E+00
  -0.8781730530E+00  -0.1369113680E+01   0.0000000000E+00
  -0.8781730530E+00  -0.1369113680E+01   0.2000000030E+00
  -0.8799427150E+00  -0.1573087330E+01   0.0000000000E+00
  -0.8799427150E+00  -0.1573087330E+01   0.2000000030E+00
  -0.8814483880E+00  -0.1776321410E+01   0.0000000000E+00
  -0.8814483880E+00  -0.1776321410E+01   0.2000000030E+00
  -0.8827497360E+00  -0.1979660030E+01   0.0000000000E+00
  -0.8827497360E+00  -0.1979660030E+01   0.2000000030E+00
  -0.8838979010E+00  -0.2183214190E+01   0.0000000000E+00
  -0.8838979010E+00  -0.2183214190E+01   0.2000000030E+00
  -0.8849322200E+00  -0.2386963840E+01   0.0000000000E+00
  -0.8849322200E+00  -0.2386963840E+01   0.2000000030E+00
  -0.8858422040E+00  -0.2590952870E+01   0.0000000000E+00
  -0.8858422040E+00  -0.2590952870E+01   0.2000000030E+00
  -0.8865984080E+00  -0.2795269970E+01   0.0000000000E+00
  -0.8865984080E+00  -0.2795269970E+01   0.2000000030E+00
  -0.8870959880E+00  -0.3000000000E+01   0.0000000000E+00
  -0.8870959880E+00  -0.3000000000E+01   0.2000000030E+00
  -0.1108420610E+01  -0.2791417120E+01   0.0000000000E+00
  -0.1108872410E+01  -0.3000000000E+01   0.0000000000E+00
  -0.1108420610E+01  -0.2791417120E+01   0.2000000030E+00
  -0.1108872410E+01  -0.3000000000E+01   0.2000000030E+00
  -0.1330781700E+01  -0.2788891080E+01   0.0000000000E+00
  -0.1331166860E+01  -0.3000000000E+01   0.0000000000E+00
  -0.1330781700E+01  -0.2788891080E+01   0.2000000030E+00
  -0.1331166860E+01  -0.3000000000E+01   0.2000000030E+00
  -0.1553593870E+01  -0.2787405730E+01   0.0000000000E+00
  -0.1553869610E+01  -0.3000000000E+01   0.0000000000E+00
  -0.1553593870E+01  -0.2787405730E+01   0.2000000030E+00
  -0.1553869610E+01  -0.3000000000E+01   0.2000000030E+00
  -0.1776719570E+01  -0.2786635160E+01   0.0000000000E+00
  -0.1776859280E+01  -0.3000000000E+01   0.0000000000E+00
  -0.1776719570E+01  -0.2786635160E+01   0.2000000030E+00
  -0.1776859280E+01  -0.3000000000E+01   0.2000000030E+00
  -0.2000000000E+01  -0.2786183360E+01   0.0000000000E+00
  -0.2000000000E+01  -0.3000000000E+01   0.0000000000E+00
  -0.2000000000E+01  -0.2786183360E+01   0.2000000030E+00
  -0.2000000000E+01  -0.3000000000E+01   0.2000000030E+00
  -0.1107654930E+01  -0.2583261730E+01   0.0000000000E+00
  -0.1107654930E+01  -0.2583261730E+01   0.2000000030E+00
  -0.1330110790E+01  -0.2578138590E+01   0.0000000000E+00
  -0.1330110790E+01  -0.2578138590E+01   0.2000000030E+00
  -0.1553108220E+01  -0.2575070860E+01   0.0000000000E+00
  -0.1553108220E+01  -0.2575070860E+01   0.2000000030E+00
  -0.1776472090E+01  -0.2573455100E+01   0.0000000000E+00
  -0.1776472090E+01  -0.2573455100E+01   0.2000000030E+00
  -0.2000000000E+01  -0.2572495700E+01   0.0000000000E+00
  -0.2000000000E+01  -0.2572495700E+01   0.2000000030E+00
  -0.1106687550E+01  -0.2375397210E+01   0.0000000000E+00
  -0.1106687550E+01  -0.2375397210E+01   0.2000000030E+00
  -0.1329248070E+01  -0.2367622850E+01   0.0000000000E+00
  -0.1329248070E+01  -0.2367622850E+01   0.2000000030E+00
  -0.1552477720E+01  -0.2362913370E+01   0.0000000000E+00
  -0.1552477720E+01  -0.2362913370E+01   0.2000000030E+00
  -0.1776148320E+01  -0.2360408780E+01   0.0000000000E+00
  -0.1776148320E+01  -0.2360408780E+01   0.2000000030E+00
  -0.2000000000E+01  -0.2358905080E+01   0.0000000000E+00
  -0.2000000000E+01  -0.2358905080E+01   0.2000000030E+00
  -0.1105587010E+01  -0.2167727710E+01   0.0000000000E+00
  -0.1105587010E+01  -0.2167727710E+01   0.2000000030E+00
  -0.1328261610E+01  -0.2157261370E+01   0.0000000000E+00
  -0.1328261610E+01  -0.2157261370E+01   0.2000000030E+00
  -0.1551752920E+01  -0.2150872950E+01   0.0000000000E+00
  -0.1551752920E+01  -0.2150872950E+01   0.2000000030E+00
  -0.1775774240E+01  -0.2147453780E+01   0.0000000000E+00
  -0.1775774240E+01  -0.2147453780E+01   0.2000000030E+00
  -0.2000000000E+01  -0.2145382640E+01   0.0000000000E+00
  -0.2000000000E+01  -0.2145382640E+01   0.2000000030E+00
  -0.1104392290E+01  -0.1960207700E+01   0.0000000000E+00
  -0.1104392290E+01  -0.1960207700E+01   0.2000000030E+00
  -0.1327206020E+01  -0.1947012660E+01   0.0000000000E+00
  -0.1327206020E+01  -0.1947012660E+01   0.2000000030E+00
  -0.1550987360E+01  -0.1938915970E+01   0.0000000000E+00
  -0.1550987360E+01  -0.1938915970E+01   0.2000000030E+00
  -0.1775388720E+01  -0.1934563760E+01   0.0000000000E+00
  -0.1775388720E+01  -0.1934563760E+01   0.2000000030E+00
  -0.2000000000E+01  -0.1931904670E+01   0.0000000000E+00
  -0.2000000000E+01  -0.1931904670E+01   0.2000000030E+00
  -0.1103163240E+01  -0.1752823710E+01   0.0000000000E+00
  -0.1103163240E+01  -0.1752823710E+01   0.2000000030E+00
  -0.1326221110E+01  -0.1736852770E+01   0.0000000000E+00
  -0.1326221110E+01  -0.1736852770E+01   0.2000000030E+00
  -0.1550349950E+01  -0.1727022290E+01   0.0000000000E+00
  -0.1550349950E+01  -0.1727022290E+01   0.2000000030E+00
  -0.1775109770E+01  -0.1721726780E+01   0.0000000000E+00
  -0.1775109770E+01  -0.1721726780E+01   0.2000000030E+00
  -0.2000000000E+01  -0.1718469140E+01   0.0000000000E+00
  -0.2000000000E+01  -0.1718469140E+01   0.2000000030E+00
  -0.1102155210E+01  -0.1545363190E+01   0.0000000000E+00
  -0.1102155210E+01  -0.1545363190E+01   0.2000000030E+00
  -0.1325763460E+01  -0.1526599410E+01   0.0000000000E+00
  -0.1325763460E+01  -0.1526599410E+01   0.2000000030E+00
  -0.1550288680E+01  -0.1515078070E+01   0.0000000000E+00
  -0.1550288680E+01  -0.1515078070E+01   0.2000000030E+00
  -0.1775199170E+01  -0.1508882760E+01   0.0000000000E+00
  -0.1775199170E+01  -0.1508882760E+01   0.2000000030E+00
  -0.2000000000E+01  -0.1505076530E+01   0.0000000000E+00
  -0.2000000000E+01  -0.1505076530E+01   0.2000000030E+00
  -0.1101977830E+01  -0.1336875680E+01   0.0000000000E+00
  -0.1101977830E+01  -0.1336875680E+01   0.2000000030E+00
  -0.1326712130E+01  -0.1315567730E+01   0.0000000000E+00
  -0.1326712130E+01  -0.1315567730E+01   0.2000000030E+00
  -0.1551543240E+01  -0.1302682040E+01   0.0000000000E+00
  -0.1551543240E+01  -0.1302682040E+01   0.2000000030E+00
  -0.1776044610E+01  -0.1295807840E+01   0.0000000000E+00
  -0.1776044610E+01  -0.1295807840E+01   0.2000000030E+00
  -0.2000000000E+01  -0.1291640640E+01   0.0000000000E+00
  -0.2000000000E+01  -0.1291640640E+01   0.2000000030E+00
  -0.1103506680E+01  -0.1124965910E+01   0.0000000000E+00
  -0.1103506680E+01  -0.1124965910E+01   0.2000000030E+00
  -0.1330238460E+01  -0.1102296830E+01   0.0000000000E+00
  -0.1330238460E+01  -0.1102296830E+01   0.2000000030E+00
  -0.1554983260E+01  -0.1089042660E+01   0.0000000000E+00
  -0.1554983260E+01  -0.1089042660E+01   0.2000000030E+00
  -0.1778062580E+01  -0.1082060810E+01   0.0000000000E+00
  -0.1778062580E+01  -0.1082060810E+01   0.2000000030E+00
  -0.2000000000E+01  -0.1077897310E+01   0.0000000000E+00
  -0.2000000000E+01  -0.1077897310E+01   0.2000000030E+00
  -0.1108269690E+01  -0.9053567650E+00   0.0000000000E+00
  -0.1108269690E+01  -0.9053567650E+00   0.2000000030E+00
  -0.1337867020E+01  -0.8848446610E+00   0.0000000000E+00
  -0.1337867020E+01  -0.8848446610E+00   0.2000000030E+00
  -0.1561456920E+01  -0.8732603790E+00   0.0000000000E+00
  -0.1561456920E+01  -0.8732603790E+00   0.2000000030E+00
  -0.1781588320E+01  -0.8671689030E+00   0.0000000000E+00
  -0.1781588320E+01  -0.8671689030E+00   0.2000000030E+00
  -0.2000000000E+01  -0.8634515400E+00   0.0000000000E+00
  -0.2000000000E+01  -0.8634515400E+00   0.2000000030E+00
  -0.7048528790E+00   0.7076904180E+00   0.0000000000E+00
  -0.7952468400E+00   0.5023135540E+00   0.0000000000E+00
  -0.6302920580E+00   0.4064873460E+00   0.0000000000E+00
  -0.5293001530E+00   0.5313580040E+00   0.0000000000E+00
  -0.7048528790E+00   0.7076904180E+00   0.2000000030E+00
  -0.7952468400E+00   0.5023135540E+00   0.2000000030E+00
  -0.6302920580E+00   0.4064873460E+00   0.2000000030E+00
  -0.5293001530E+00   0.5313580040E+00   0.2000000030E+00
  -0.8581277730E+00   0.3254882100E+00   0.0000000000E+00
  -0.6988990900E+00   0.2721031010E+00   0.0000000000E+00
  -0.8581277730E+00   0.3254882100E+00   0.2000000030E+00
  -0.6988990900E+00   0.2721031010E+00   0.2000000030E+00
  -0.8943243620E+00   0.1585376860E+00   0.0000000000E+00
  -0.7376269700E+00   0.1356702890E+00   0.0000000000E+00
  -0.8943243620E+00   0.1585376860E+00   0.2000000030E+00
  -0.7376269700E+00   0.1356702890E+00   0.2000000030E+00
  -0.1053573610E+01   0.1660468580E+00   0.0000000000E+00
  -0.1053573610E+01   0.1660468580E+00   0.2000000030E+00
  -0.1230413910E+01   0.1730122860E+00   0.0000000000E+00
  -0.1230413910E+01   0.1730122860E+00   0.2000000030E+00
  -0.1417248850E+01   0.1791823210E+00   0.0000000000E+00
  -0.1417248850E+01   0.1791823210E+00   0.2000000030E+00
  -0.1609350680E+01   0.1841315030E+00   0.0000000000E+00
  -0.1609350680E+01   0.1841315030E+00   0.2000000030E+00
  -0.1803559300E+01   0.1857719420E+00   0.0000000000E+00
  -0.1803559300E+01   0.1857719420E+00   0.2000000030E+00
  -0.2000000000E+01   0.1883829240E+00   0.0000000000E+00
  -0.2000000000E+01   0.1883829240E+00   0.2000000030E+00
  -0.1027791500E+01   0.3438689110E+00   0.0000000000E+00
  -0.1027791500E+01   0.3438689110E+00   0.2000000030E+00
  -0.1211868050E+01   0.3570493460E+00   0.0000000000E+00
  -0.1211868050E+01   0.3570493460E+00   0.2000000030E+00
  -0.1403856750E+01   0.3674374220E+00   0.0000000000E+00
  -0.1403856750E+01   0.3674374220E+00   0.2000000030E+00
  -0.1600399370E+01   0.3755825760E+00   0.0000000000E+00
  -0.1600399370E+01   0.3755825760E+00   0.2000000030E+00
  -0.1799434660E+01   0.3804725410E+00   0.0000000000E+00
  -0.1799434660E+01   0.3804725410E+00   0.2000000030E+00
  -0.2000000000E+01   0.3844312730E+00   0.0000000000E+00
  -0.2000000000E+01   0.3844312730E+00   0.2000000030E+00
  -0.9883327480E+00   0.5289762020E+00   0.0000000000E+00
  -0.9883327480E+00   0.5289762020E+00   0.2000000030E+00
  -0.1186133270E+01   0.5449482200E+00   0.0000000000E+00
  -0.1186133270E+01   0.5449482200E+00   0.2000000030E+00
  -0.1386561750E+01   0.5572313070E+00   0.0000000000E+00
  -0.1386561750E+01   0.5572313070E+00   0.2000000030E+00
  -0.1589444880E+01   0.5673398970E+00   0.0000000000E+00
  -0.1589444880E+01   0.5673398970E+00   0.2000000030E+00
  -0.1794199230E+01   0.5743887420E+00   0.0000000000E+00
  -0.1794199230E+01   0.5743887420E+00   0.2000000030E+00
  -0.2000000000E+01   0.5795197490E+00   0.0000000000E+00
  -0.2000000000E+01   0.5795197490E+00   0.2000000030E+00
  -0.9458490610E+00   0.7264072900E+00   0.0000000000E+00
  -0.9458490610E+00   0.7264072900E+00   0.2000000030E+00
  -0.1159108520E+01   0.7371867900E+00   0.0000000000E+00
  -0.1159108520E+01   0.7371867900E+00   0.2000000030E+00
  -0.1367685200E+01   0.7486228940E+00   0.0000000000E+00
  -0.1367685200E+01   0.7486228940E+00   0.2000000030E+00
  -0.1577038760E+01   0.7604411840E+00   0.0000000000E+00
  -0.1577038760E+01   0.7604411840E+00   0.2000000030E+00
  -0.1787917020E+01   0.7702229020E+00   0.0000000000E+00
  -0.1787917020E+01   0.7702229020E+00   0.2000000030E+00
  -0.2000000000E+01   0.7756807800E+00   0.0000000000E+00
  -0.2000000000E+01   0.7756807800E+00   0.2000000030E+00
  -0.1784538030E+01   0.9674140810E+00   0.0000000000E+00
  -0.2000000000E+01   0.9734619260E+00   0.0000000000E+00
  -0.1784538030E+01   0.9674140810E+00   0.2000000030E+00
  -0.2000000000E+01   0.9734619260E+00   0.2000000030E+00
  -0.1783432480E+01   0.1167214630E+01   0.0000000000E+00
  -0.2000000000E+01   0.1173172590E+01   0.0000000000E+00
  -0.1783432480E+01   0.1167214630E+01   0.2000000030E+00
  -0.2000000000E+01   0.1173172590E+01   0.2000000030E+00
  -0.1783881900E+01   0.1368858340E+01   0.0000000000E+00
  -0.2000000000E+01   0.1374387150E+01   0.0000000000E+00
  -0.1783881900E+01   0.1368858340E+01   0.2000000030E+00
  -0.2000000000E+01   0.1374387150E+01   0.2000000030E+00
  -0.1785231950E+01   0.1571645020E+01   0.0000000000E+00
  -0.2000000000E+01   0.1576574330E+01   0.0000000000E+00
  -0.1785231950E+01   0.1571645020E+01   0.2000000030E+00
  -0.2000000000E+01   0.1576574330E+01   0.2000000030E+00
  -0.1787048460E+01   0.1775076150E+01   0.0000000000E+00
  -0.2000000000E+01   0.1779323100E+01   0.0000000000E+00
  -0.1787048460E+01   0.1775076150E+01   0.2000000030E+00
  -0.2000000000E+01   0.1779323100E+01   0.2000000030E+00
  -0.1789086340E+01   0.1978845360E+01   0.0000000000E+00
  -0.2000000000E+01   0.1982371690E+01   0.0000000000E+00
  -0.1789086340E+01   0.1978845360E+01   0.2000000030E+00
  -0.2000000000E+01   0.1982371690E+01   0.2000000030E+00
  -0.1791210410E+01   0.2182788370E+01   0.0000000000E+00
  -0.2000000000E+01   0.2185577630E+01   0.0000000000E+00
  -0.1791210410E+01   0.2182788370E+01   0.2000000030E+00
  -0.2000000000E+01   0.2185577630E+01   0.2000000030E+00
  -0.1793293000E+01   0.2386843440E+01   0.0000000000E+00
  -0.2000000000E+01   0.2388894320E+01   0.0000000000E+00
  -0.1793293000E+01   0.2386843440E+01   0.2000000030E+00
  -0.2000000000E+01   0.2388894320E+01   0.2000000030E+00
  -0.1795117380E+01   0.2591023920E+01   0.0000000000E+00
  -0.2000000000E+01   0.2592350010E+01   0.0000000000E+00
  -0.1795117380E+01   0.2591023920E+01   0.2000000030E+00
  -0.2000000000E+01   0.2592350010E+01   0.2000000030E+00
  -0.1796386480E+01   0.2795390840E+01   0.0000000000E+00
  -0.2000000000E+01   0.2796021700E+01   0.0000000000E+00
  -0.1796386480E+01   0.2795390840E+01   0.2000000030E+00
  -0.2000000000E+01   0.2796021700E+01   0.2000000030E+00
  -0.1797227740E+01   0.3000000000E+01   0.0000000000E+00
  -0.2000000000E+01   0.3000000000E+01   0.0000000000E+00
  -0.1797227740E+01   0.3000000000E+01   0.2000000030E+00
  -0.2000000000E+01   0.3000000000E+01   0.2000000030E+00
  -0.1570309640E+01   0.9573178290E+00   0.0000000000E+00
  -0.1570309640E+01   0.9573178290E+00   0.2000000030E+00
  -0.1567977550E+01   0.1157548430E+01   0.0000000000E+00
  -0.1567977550E+01   0.1157548430E+01   0.2000000030E+00
  -0.1568689820E+01   0.1360000490E+01   0.0000000000E+00
  -0.1568689820E+01   0.1360000490E+01   0.2000000030E+00
  -0.1571209910E+01   0.1563790680E+01   0.0000000000E+00
  -0.1571209910E+01   0.1563790680E+01   0.2000000030E+00
  -0.1574694160E+01   0.1768326880E+01   0.0000000000E+00
  -0.1574694160E+01   0.1768326880E+01   0.2000000030E+00
  -0.1578650000E+01   0.1973252530E+01   0.0000000000E+00
  -0.1578650000E+01   0.1973252530E+01   0.2000000030E+00
  -0.1582788470E+01   0.2178375480E+01   0.0000000000E+00
  -0.1582788470E+01   0.2178375480E+01   0.2000000030E+00
  -0.1586826210E+01   0.2383613110E+01   0.0000000000E+00
  -0.1586826210E+01   0.2383613110E+01   0.2000000030E+00
  -0.1590314390E+01   0.2588958740E+01   0.0000000000E+00
  -0.1590314390E+01   0.2588958740E+01   0.2000000030E+00
  -0.1592706440E+01   0.2794428830E+01   0.0000000000E+00
  -0.1592706440E+01   0.2794428830E+01   0.2000000030E+00
  -0.1594253180E+01   0.3000000000E+01   0.0000000000E+00
  -0.1594253180E+01   0.3000000000E+01   0.2000000030E+00
  -0.1357835170E+01   0.9464269880E+00   0.0000000000E+00
  -0.1357835170E+01   0.9464269880E+00   0.2000000030E+00
  -0.1354512570E+01   0.1147883180E+01   0.0000000000E+00
  -0.1354512570E+01   0.1147883180E+01   0.2000000030E+00
  -0.1355522870E+01   0.1351505520E+01   0.0000000000E+00
  -0.1355522870E+01   0.1351505520E+01   0.2000000030E+00
  -0.1359080670E+01   0.1556411860E+01   0.0000000000E+00
  -0.1359080670E+01   0.1556411860E+01   0.2000000030E+00
  -0.1364014150E+01   0.1762054680E+01   0.0000000000E+00
  -0.1364014150E+01   0.1762054680E+01   0.2000000030E+00
  -0.1369630580E+01   0.1968094110E+01   0.0000000000E+00
  -0.1369630580E+01   0.1968094110E+01   0.2000000030E+00
  -0.1375501750E+01   0.2174338580E+01   0.0000000000E+00
  -0.1375501750E+01   0.2174338580E+01   0.2000000030E+00
  -0.1381177660E+01   0.2380698200E+01   0.0000000000E+00
  -0.1381177660E+01   0.2380698200E+01   0.2000000030E+00
  -0.1386011000E+01   0.2587138650E+01   0.0000000000E+00
  -0.1386011000E+01   0.2587138650E+01   0.2000000030E+00
  -0.1389309290E+01   0.2793611050E+01   0.0000000000E+00
  -0.1389309290E+01   0.2793611050E+01   0.2000000030E+00
  -0.1391371730E+01   0.3000000000E+01   0.0000000000E+00
  -0.1391371730E+01   0.3000000000E+01   0.2000000030E+00
  -0.1147323370E+01   0.9389253260E+00   0.0000000000E+00
  -0.1147323370E+01   0.9389253260E+00   0.2000000030E+00
  -0.1144198420E+01   0.1143046380E+01   0.0000000000E+00
  -0.1144198420E+01   0.1143046380E+01   0.2000000030E+00
  -0.1145997520E+01   0.1348075390E+01   0.0000000000E+00
  -0.1145997520E+01   0.1348075390E+01   0.2000000030E+00
  -0.1150541900E+01   0.1553749320E+01   0.0000000000E+00
  -0.1150541900E+01   0.1553749320E+01   0.2000000030E+00
  -0.1156578900E+01   0.1759916780E+01   0.0000000000E+00
  -0.1156578900E+01   0.1759916780E+01   0.2000000030E+00
  -0.1163366910E+01   0.1966400860E+01   0.0000000000E+00
  -0.1163366910E+01   0.1966400860E+01   0.2000000030E+00
  -0.1170392990E+01   0.2173064950E+01   0.0000000000E+00
  -0.1170392990E+01   0.2173064950E+01   0.2000000030E+00
  -0.1177099230E+01   0.2379833220E+01   0.0000000000E+00
  -0.1177099230E+01   0.2379833220E+01   0.2000000030E+00
  -0.1182764290E+01   0.2586653230E+01   0.0000000000E+00
  -0.1182764290E+01   0.2586653230E+01   0.2000000030E+00
  -0.1186662790E+01   0.2793435340E+01   0.0000000000E+00
  -0.1186662790E+01   0.2793435340E+01   0.2000000030E+00
  -0.1189031000E+01   0.3000000000E+01   0.0000000000E+00
  -0.1189031000E+01   0.3000000000E+01   0.2000000030E+00
  -0.9374490980E+00   0.9389896990E+00   0.0000000000E+00
  -0.9374490980E+00   0.9389896990E+00   0.2000000030E+00
  -0.9377404450E+00   0.1147603270E+01   0.0000000000E+00
  -0.9377404450E+00   0.1147603270E+01   0.2000000030E+00
  -0.9414683580E+00   0.1353696580E+01   0.0000000000E+00
  -0.9414683580E+00   0.1353696580E+01   0.2000000030E+00
  -0.9470180870E+00   0.1559129950E+01   0.0000000000E+00
  -0.9470180870E+00   0.1559129950E+01   0.2000000030E+00
  -0.9536617400E+00   0.1764654640E+01   0.0000000000E+00
  -0.9536617400E+00   0.1764654640E+01   0.2000000030E+00
  -0.9608947040E+00   0.1970384120E+01   0.0000000000E+00
  -0.9608947040E+00   0.1970384120E+01   0.2000000030E+00
  -0.9682478900E+00   0.2176254030E+01   0.0000000000E+00
  -0.9682478900E+00   0.2176254030E+01   0.2000000030E+00
  -0.9751866460E+00   0.2382210490E+01   0.0000000000E+00
  -0.9751866460E+00   0.2382210490E+01   0.2000000030E+00
  -0.9810604450E+00   0.2588212970E+01   0.0000000000E+00
  -0.9810604450E+00   0.2588212970E+01   0.2000000030E+00
  -0.9852053520E+00   0.2794194220E+01   0.0000000000E+00
  -0.9852053520E+00   0.2794194220E+01   0.2000000030E+00
  -0.9877309200E+00   0.3000000000E+01   0.0000000000E+00
  -0.9877309200E+00   0.3000000000E+01   0.2000000030E+00
  -0.7236281630E+00   0.9487441180E+00   0.0000000000E+00
  -0.7236281630E+00   0.9487441180E+00   0.2000000030E+00
  -0.7322664860E+00   0.1160335540E+01   0.0000000000E+00